V -t * -v 1.0a5 -a 0
W -t * -x 4687 -y 2822
A -t * -n 1 -p 0 -o 0x7fffffff -c 30 -a 1
A -t * -h 1 -m 1073741823 -s 0
n -t 0.000000 -s 0 -x 5.130000 -y 1809.650000 -U 0.000000 -V 0.000000 -T 0.000000
n -t 0.100000 -s 0 -x 5.130000 -y 1809.650000 -U 0.250000 -V 0.000000 -T 0.080000
n -t 0.200000 -s 0 -x 5.150000 -y 1809.650000 -U 0.490000 -V 0.000000 -T 0.102041
n -t 0.300000 -s 0 -x 5.199000 -y 1809.650000 -U 0.750000 -V 0.000000 -T 0.108000
n -t 0.400000 -s 0 -x 5.274000 -y 1809.650000 -U 0.980000 -V 0.000000 -T 0.108163
n -t 0.500000 -s 0 -x 5.372000 -y 1809.650000 -U 1.210000 -V 0.000000 -T 0.105785
n -t 0.600000 -s 0 -x 5.493000 -y 1809.650000 -U 1.456633 -V 0.099091 -T 0.100918
n -t 0.700000 -s 0 -x 5.638663 -y 1809.659909 -U 1.660000 -V 0.000881 -T 0.103215
n -t 0.800000 -s 0 -x 5.804663 -y 1809.659997 -U 1.900000 -V 0.000028 -T 0.102809
n -t 0.900000 -s 0 -x 5.994663 -y 1809.660000 -U 2.097739 -V 0.097417 -T 0.102652
n -t 1.000000 -s 0 -x 6.204437 -y 1809.669742 -U 2.269999 -V 0.002489 -T 0.103772
n -t 1.000000 -s 1 -x 3467.070000 -y 5.150000 -U 0.000000 -V 0.000000 -T 0.000000
n -t 1.100000 -s 0 -x 6.431437 -y 1809.669991 -U 2.528106 -V 0.097867 -T 0.102275
n -t 1.100000 -s 1 -x 3467.070000 -y 5.150000 -U 0.000000 -V 0.250000 -T 0.080000
n -t 1.200000 -s 0 -x 6.684248 -y 1809.679777 -U 2.728126 -V 0.101137 -T 0.101078
n -t 1.200000 -s 1 -x 3467.070000 -y 5.170000 -U 0.000000 -V 0.500000 -T 0.100000
n -t 1.300000 -s 0 -x 6.957060 -y 1809.689891 -U 2.910000 -V 0.001083 -T 0.100667
n -t 1.300000 -s 1 -x 3467.070000 -y 5.220000 -U 0.000000 -V 0.750000 -T 0.106667
n -t 1.400000 -s 0 -x 7.248060 -y 1809.689999 -U 3.168472 -V 0.098425 -T 0.101607
n -t 1.400000 -s 1 -x 3467.070000 -y 5.295000 -U 0.000000 -V 0.970000 -T 0.097938
n -t 1.500000 -s 0 -x 7.564907 -y 1809.699842 -U 3.380000 -V 0.001549 -T 0.102098
n -t 1.500000 -s 1 -x 3467.070000 -y 5.390000 -U -0.097994 -V 1.175924 -T 0.102047
n -t 1.600000 -s 0 -x 7.902907 -y 1809.699997 -U 3.638649 -V 0.099153 -T 0.100887
n -t 1.600000 -s 1 -x 3467.060201 -y 5.507592 -U -0.001987 -V 1.409999 -T 0.100998
n -t 1.700000 -s 0 -x 8.266772 -y 1809.709912 -U 3.858730 -V 0.098993 -T 0.101906
n -t 1.700000 -s 1 -x 3467.060002 -y 5.648592 -U -0.099576 -V 1.606918 -T 0.100446
n -t 1.800000 -s 0 -x 8.652645 -y 1809.719811 -U 3.998749 -V 0.100016 -T 0.101870
n -t 1.800000 -s 1 -x 3467.050044 -y 5.809284 -U -0.000442 -V 1.800000 -T 0.100398
n -t 1.900000 -s 0 -x 9.052520 -y 1809.729813 -U 4.138768 -V 0.100992 -T 0.100871
n -t 1.900000 -s 1 -x 3467.050000 -y 5.989284 -U -0.095758 -V 2.017729 -T 0.104432
n -t 2.000000 -s 0 -x 9.466397 -y 1809.739912 -U 4.328829 -V 0.100712 -T 0.100166
n -t 2.000000 -s 1 -x 3467.040424 -y 6.191057 -U -0.102343 -V 2.247671 -T 0.101858
n -t 2.000000 -s 2 -x 3388.270000 -y 1902.110000 -U 0.000000 -V 0.000000 -T 0.000000
n -t 2.100000 -s 0 -x 9.899280 -y 1809.749983 -U 4.588916 -V 0.099770 -T 0.100398
n -t 2.100000 -s 1 -x 3467.030190 -y 6.415824 -U -0.001848 -V 2.469999 -T 0.102905
n -t 2.100000 -s 2 -x 3388.270000 -y 1902.110000 -U 0.176777 -V 0.176777 -T 0.113137
n -t 2.200000 -s 0 -x 10.358172 -y 1809.759960 -U 4.828952 -V 0.100620 -T 0.099779
n -t 2.200000 -s 1 -x 3467.030005 -y 6.662824 -U -0.097672 -V 2.608172 -T 0.102438
n -t 2.200000 -s 2 -x 3388.287678 -y 1902.127678 -U 0.360624 -V 0.360624 -T 0.089629
n -t 2.300000 -s 0 -x 10.840000 -y 1809.770000 -U 4.999000 -V 0.099980 -T 0.100020
n -t 2.300000 -s 1 -x 3467.020238 -y 6.923641 -U -0.100759 -V 2.818199 -T 0.101611
n -t 2.300000 -s 2 -x 3388.320000 -y 1902.160000 -U 0.537401 -V 0.537401 -T 0.111648
n -t 2.400000 -s 0 -x 11.339900 -y 1809.779998 -U 5.239068 -V 0.098851 -T 0.101182
n -t 2.400000 -s 1 -x 3467.010162 -y 7.205461 -U -0.101053 -V 3.028314 -T 0.100564
n -t 2.400000 -s 2 -x 3388.373740 -y 1902.213740 -U 0.685894 -V 0.685894 -T 0.096604
n -t 2.500000 -s 0 -x 11.863807 -y 1809.789883 -U 5.469062 -V 0.101301 -T 0.099870
n -t 2.500000 -s 1 -x 3467.000057 -y 7.508293 -U -0.098794 -V 3.258503 -T 0.101798
n -t 2.500000 -s 2 -x 3388.440000 -y 1902.280000 -U 0.862670 -V 0.862670 -T 0.104327
n -t 2.600000 -s 0 -x 12.410000 -y 1809.800000 -U 5.649131 -V 0.099108 -T 0.100900
n -t 2.600000 -s 1 -x 3466.990178 -y 7.834143 -U -0.099774 -V 3.488574 -T 0.102007
n -t 2.600000 -s 2 -x 3388.526267 -y 1902.366267 -U 1.004092 -V 1.004092 -T 0.103310
n -t 2.700000 -s 0 -x 12.974913 -y 1809.809911 -U 5.899152 -V 0.100016 -T 0.100877
n -t 2.700000 -s 1 -x 3466.980200 -y 8.183000 -U -0.101685 -V 3.658587 -T 0.100312
n -t 2.700000 -s 2 -x 3388.626676 -y 1902.466676 -U 1.145513 -V 1.145513 -T 0.107658
n -t 2.800000 -s 0 -x 13.564828 -y 1809.819912 -U 6.076761 -V 0.198429 -T 0.101233
n -t 2.800000 -s 1 -x 3466.970032 -y 8.548859 -U -0.098197 -V 3.828741 -T 0.102159
n -t 2.800000 -s 2 -x 3388.741227 -y 1902.581227 -U 1.272792 -V 1.272792 -T 0.101173
n -t 2.900000 -s 0 -x 14.172504 -y 1809.839755 -U 6.219171 -V 0.101537 -T 0.100897
n -t 2.900000 -s 1 -x 3466.960212 -y 8.931733 -U -0.200258 -V 4.045046 -T 0.100930
n -t 2.900000 -s 2 -x 3388.868507 -y 1902.708507 -U 1.421285 -V 1.421285 -T 0.099553
n -t 3.000000 -s 0 -x 14.794422 -y 1809.849909 -U 6.399218 -V 0.100027 -T 0.100884
n -t 3.000000 -s 1 -x 3466.940186 -y 9.336238 -U -0.100717 -V 4.288818 -T 0.101138
n -t 3.000000 -s 2 -x 3389.010000 -y 1902.850000 -U 1.527351 -V 1.527351 -T 0.104757
n -t 3.000000 -s 3 -x 5.130000 -y 1809.650000 -U 0.000000 -V 0.000000 -T 0.000000
n -t 3.100000 -s 0 -x 15.434343 -y 1809.859912 -U 6.636978 -V 0.200293 -T 0.100295
n -t 3.100000 -s 1 -x 3466.930115 -y 9.765119 -U -0.100703 -V 4.528881 -T 0.100440
n -t 3.100000 -s 2 -x 3389.162735 -y 1903.002735 -U 1.704127 -V 1.704127 -T 0.104021
n -t 3.100000 -s 3 -x 5.130000 -y 1809.650000 -U 0.250000 -V 0.000000 -T 0.080000
n -t 3.200000 -s 0 -x 16.098041 -y 1809.879941 -U 6.859275 -V 0.099714 -T 0.100879
n -t 3.200000 -s 1 -x 3466.920044 -y 10.218007 -U -0.198144 -V 4.665795 -T 0.101160
n -t 3.200000 -s 2 -x 3389.333148 -y 1903.173148 -U 1.887975 -V 1.887975 -T 0.104266
n -t 3.200000 -s 3 -x 5.150000 -y 1809.650000 -U 0.500000 -V 0.000000 -T 0.100000
n -t 3.300000 -s 0 -x 16.783969 -y 1809.889912 -U 7.097208 -V 0.199106 -T 0.100889
n -t 3.300000 -s 1 -x 3466.900230 -y 10.684587 -U -0.100953 -V 4.888958 -T 0.101333
n -t 3.300000 -s 2 -x 3389.521945 -y 1903.361945 -U 2.036468 -V 2.036468 -T 0.102165
n -t 3.300000 -s 3 -x 5.200000 -y 1809.650000 -U 0.720000 -V 0.000000 -T 0.111111
n -t 3.400000 -s 0 -x 17.493689 -y 1809.909823 -U 7.349298 -V 0.101580 -T 0.100188
n -t 3.400000 -s 1 -x 3466.890135 -y 11.173483 -U -0.199433 -V 5.116114 -T 0.100959
n -t 3.400000 -s 2 -x 3389.725592 -y 1903.565592 -U 2.206173 -V 2.206173 -T 0.101718
n -t 3.400000 -s 3 -x 5.272000 -y 1809.650000 -U 0.950000 -V 0.000000 -T 0.103158
n -t 3.500000 -s 0 -x 18.228619 -y 1809.919981 -U 7.597374 -V 0.199759 -T 0.100216
n -t 3.500000 -s 1 -x 3466.870191 -y 11.685094 -U -0.100769 -V 5.289040 -T 0.101135
n -t 3.500000 -s 2 -x 3389.946209 -y 1903.786209 -U 2.354666 -V 2.354666 -T 0.103535
n -t 3.500000 -s 3 -x 5.367000 -y 1809.650000 -U 1.210000 -V 0.000000 -T 0.101653
n -t 3.600000 -s 0 -x 18.988357 -y 1809.939957 -U 7.819371 -V 0.099201 -T 0.101241
n -t 3.600000 -s 1 -x 3466.860114 -y 12.213998 -U -0.197396 -V 5.456431 -T 0.101898
n -t 3.600000 -s 2 -x 3390.181676 -y 1904.021676 -U 2.503158 -V 2.503158 -T 0.103199
n -t 3.600000 -s 3 -x 5.488000 -y 1809.650000 -U 1.446872 -V 0.095189 -T 0.105054
n -t 3.700000 -s 0 -x 19.770294 -y 1809.949877 -U 7.997531 -V 0.198758 -T 0.101245
n -t 3.700000 -s 1 -x 3466.840375 -y 12.759641 -U -0.201705 -V 5.646398 -T 0.101013
n -t 3.700000 -s 2 -x 3390.431992 -y 1904.271992 -U 2.609224 -V 2.609224 -T 0.102716
n -t 3.700000 -s 3 -x 5.632687 -y 1809.659519 -U 1.679993 -V 0.004831 -T 0.099591
n -t 3.800000 -s 0 -x 20.570047 -y 1809.969753 -U 8.187504 -V 0.202177 -T 0.100147
n -t 3.800000 -s 1 -x 3466.820204 -y 13.324281 -U -0.198971 -V 5.866627 -T 0.101544
n -t 3.800000 -s 2 -x 3390.692914 -y 1904.532914 -U 2.701148 -V 2.701148 -T 0.102581
n -t 3.800000 -s 3 -x 5.800000 -y 1809.660000 -U 1.900000 -V 0.000000 -T 0.100000
n -t 3.900000 -s 0 -x 21.388797 -y 1809.989970 -U 8.447662 -V 0.198782 -T 0.100762
n -t 3.900000 -s 1 -x 3466.800307 -y 13.910944 -U -0.200321 -V 6.106715 -T 0.101373
n -t 3.900000 -s 2 -x 3390.963029 -y 1904.803029 -U 2.807214 -V 2.807214 -T 0.102226
n -t 3.900000 -s 3 -x 5.990000 -y 1809.660000 -U 2.127803 -V 0.096718 -T 0.103393
n -t 4.000000 -s 0 -x 22.233563 -y 1810.009849 -U 8.619408 -V 0.100988 -T 0.100522
n -t 4.000000 -s 1 -x 3466.780275 -y 14.521615 -U -0.200304 -V 6.306820 -T 0.101221
n -t 4.000000 -s 2 -x 3391.243750 -y 1905.083750 -U 2.948635 -V 2.948635 -T 0.100470
n -t 4.000000 -s 3 -x 6.202780 -y 1809.669672 -U 2.279998 -V 0.003293 -T 0.099658
n -t 4.100000 -s 0 -x 23.095504 -y 1810.019947 -U 8.787742 -V 0.199230 -T 0.100651
n -t 4.100000 -s 1 -x 3466.760245 -y 15.152297 -U -0.201816 -V 6.456847 -T 0.100313
n -t 4.100000 -s 2 -x 3391.538614 -y 1905.378614 -U 3.082986 -V 3.082986 -T 0.101001
n -t 4.100000 -s 3 -x 6.430000 -y 1809.670000 -U 2.478018 -V 0.099121 -T 0.100887
n -t 4.200000 -s 0 -x 23.974278 -y 1810.039870 -U 8.927746 -V 0.200635 -T 0.100330
n -t 4.200000 -s 1 -x 3466.740063 -y 15.797982 -U -0.198746 -V 6.657034 -T 0.100949
n -t 4.200000 -s 2 -x 3391.846912 -y 1905.686912 -U 3.231478 -V 3.231478 -T 0.099981
n -t 4.200000 -s 3 -x 6.677802 -y 1809.679912 -U 2.700000 -V 0.000872 -T 0.100814
n -t 4.300000 -s 0 -x 24.867053 -y 1810.059934 -U 9.087805 -V 0.199747 -T 0.100458
n -t 4.300000 -s 1 -x 3466.720189 -y 16.463685 -U -0.198811 -V 6.857119 -T 0.101546
n -t 4.300000 -s 2 -x 3392.170000 -y 1906.010000 -U 3.358757 -V 3.358757 -T 0.101228
n -t 4.300000 -s 3 -x 6.947802 -y 1809.679999 -U 2.948386 -V 0.097572 -T 0.102496
n -t 4.400000 -s 0 -x 25.775834 -y 1810.079908 -U 9.247861 -V 0.198898 -T 0.101014
n -t 4.400000 -s 1 -x 3466.700307 -y 17.149397 -U -0.200819 -V 7.027131 -T 0.101123
n -t 4.400000 -s 2 -x 3392.505876 -y 1906.345876 -U 3.528463 -V 3.528463 -T 0.100362
n -t 4.400000 -s 3 -x 7.242640 -y 1809.689756 -U 3.168350 -V 0.102266 -T 0.100166
n -t 4.500000 -s 0 -x 26.700620 -y 1810.099798 -U 9.417868 -V 0.200402 -T 0.100806
n -t 4.500000 -s 1 -x 3466.680225 -y 17.852110 -U -0.199152 -V 7.167234 -T 0.101558
n -t 4.500000 -s 2 -x 3392.858722 -y 1906.698722 -U 3.676955 -V 3.676955 -T 0.100974
n -t 4.500000 -s 3 -x 7.559475 -y 1809.699983 -U 3.410000 -V 0.000170 -T 0.099861
n -t 4.600000 -s 0 -x 27.642406 -y 1810.119838 -U 9.617912 -V 0.200407 -T 0.100603
n -t 4.600000 -s 1 -x 3466.660310 -y 18.568834 -U -0.301556 -V 7.373836 -T 0.100513
n -t 4.600000 -s 2 -x 3393.226418 -y 1907.066418 -U 3.804234 -V 3.804234 -T 0.100830
n -t 4.600000 -s 3 -x 7.900000 -y 1809.700000 -U 3.668660 -V 0.099153 -T 0.100854
n -t 4.700000 -s 0 -x 28.604198 -y 1810.139879 -U 9.747928 -V 0.201001 -T 0.100104
n -t 4.700000 -s 1 -x 3466.630155 -y 19.306217 -U -0.198411 -V 7.617416 -T 0.101581
n -t 4.700000 -s 2 -x 3393.606841 -y 1907.446841 -U 3.903229 -V 3.903229 -T 0.100727
n -t 4.700000 -s 3 -x 8.266866 -y 1809.709915 -U 3.818677 -V 0.100514 -T 0.100332
n -t 4.800000 -s 0 -x 29.578991 -y 1810.159979 -U 9.968006 -V 0.199366 -T 0.100422
n -t 4.800000 -s 1 -x 3466.610314 -y 20.067959 -U -0.299457 -V 7.824272 -T 0.101229
n -t 4.800000 -s 2 -x 3393.997164 -y 1907.837164 -U 4.030509 -V 4.030509 -T 0.099947
n -t 4.800000 -s 3 -x 8.648734 -y 1809.719967 -U 3.988753 -V 0.099735 -T 0.100599
n -t 4.900000 -s 0 -x 30.575791 -y 1810.179916 -U 10.188041 -V 0.199782 -T 0.100530
n -t 4.900000 -s 1 -x 3466.580368 -y 20.850386 -U -0.201197 -V 7.997470 -T 0.101234
n -t 4.900000 -s 2 -x 3394.400000 -y 1908.240000 -U 4.157788 -V 4.157788 -T 0.101015
n -t 4.900000 -s 3 -x 9.047609 -y 1809.729940 -U 4.198809 -V 0.100000 -T 0.100598
n -t 5.000000 -s 0 -x 31.594595 -y 1810.199894 -U 10.368083 -V 0.199407 -T 0.100829
n -t 5.000000 -s 1 -x 3466.560248 -y 21.650133 -U -0.300482 -V 8.144459 -T 0.100666
n -t 5.000000 -s 2 -x 3394.815779 -y 1908.655779 -U 4.285067 -V 4.285067 -T 0.101334
n -t 5.000000 -s 3 -x 9.467490 -y 1809.739940 -U 4.448901 -V 0.098904 -T 0.101713
n -t 5.000000 -s 4 -x 3429.470000 -y 1928.240000 -U 0.000000 -V 0.000000 -T 0.000000
n -t 5.100000 -s 0 -x 32.631404 -y 1810.219835 -U 10.528090 -V 0.200551 -T 0.100550
n -t 5.100000 -s 1 -x 3466.530200 -y 22.464579 -U -0.301290 -V 8.334556 -T 0.100236
n -t 5.100000 -s 2 -x 3395.244285 -y 1909.084285 -U 4.468915 -V 4.468915 -T 0.101974
n -t 5.100000 -s 3 -x 9.912380 -y 1809.749831 -U 4.578870 -V 0.101753 -T 0.099942
n -t 5.100000 -s 4 -x 3429.470000 -y 1928.240000 -U 0.237171 -V 0.079057 -T 0.126491
n -t 5.200000 -s 0 -x 33.684213 -y 1810.239890 -U 10.665823 -V 0.298526 -T 0.100863
n -t 5.200000 -s 1 -x 3466.500071 -y 23.298034 -U -0.199721 -V 8.477648 -T 0.100496
n -t 5.200000 -s 2 -x 3395.691177 -y 1909.531177 -U 4.638620 -V 4.638620 -T 0.101069
n -t 5.200000 -s 3 -x 10.370000 -y 1809.760000 -U 4.778963 -V 0.099562 -T 0.100440
n -t 5.200000 -s 4 -x 3429.493717 -y 1928.247906 -U 0.499654 -V 0.018592 -T 0.112644
n -t 5.300000 -s 0 -x 34.750795 -y 1810.269742 -U 10.828127 -V 0.201388 -T 0.100590
n -t 5.300000 -s 1 -x 3466.480099 -y 24.145799 -U -0.299022 -V 8.684854 -T 0.100658
n -t 5.300000 -s 2 -x 3396.155039 -y 1909.995039 -U 4.822468 -V 4.822468 -T 0.100563
n -t 5.300000 -s 3 -x 10.847896 -y 1809.769956 -U 4.979004 -V 0.099597 -T 0.100844
n -t 5.300000 -s 4 -x 3429.543683 -y 1928.249765 -U 0.729997 -V 0.002249 -T 0.104545
n -t 5.400000 -s 0 -x 35.833608 -y 1810.289881 -U 10.968187 -V 0.199448 -T 0.100873
n -t 5.400000 -s 1 -x 3466.450197 -y 25.014285 -U -0.299534 -V 8.884952 -T 0.100813
n -t 5.400000 -s 2 -x 3396.637286 -y 1910.477286 -U 4.921463 -V 4.921463 -T 0.100115
n -t 5.400000 -s 3 -x 11.345797 -y 1809.779916 -U 5.239031 -V 0.100783 -T 0.100057
n -t 5.400000 -s 4 -x 3429.616682 -y 1928.249990 -U 0.965479 -V 0.093543 -T 0.107012
n -t 5.500000 -s 0 -x 36.930426 -y 1810.309826 -U 11.206003 -V 0.299344 -T 0.100801
n -t 5.500000 -s 1 -x 3466.420243 -y 25.902780 -U -0.301193 -V 9.034981 -T 0.100412
n -t 5.500000 -s 2 -x 3397.129432 -y 1910.969432 -U 5.069956 -V 5.069956 -T 0.100705
n -t 5.500000 -s 3 -x 11.869700 -y 1809.789994 -U 5.389076 -V 0.099800 -T 0.100258
n -t 5.500000 -s 4 -x 3429.713230 -y 1928.259344 -U 1.169984 -V 0.006054 -T 0.108352
n -t 5.600000 -s 0 -x 38.051027 -y 1810.339760 -U 11.408230 -V 0.200961 -T 0.100714
n -t 5.600000 -s 1 -x 3466.390124 -y 26.806278 -U -0.299868 -V 9.195112 -T 0.100458
n -t 5.600000 -s 2 -x 3397.636428 -y 1911.476428 -U 5.211377 -V 5.211377 -T 0.100467
n -t 5.600000 -s 3 -x 12.408607 -y 1809.799974 -U 5.529086 -V 0.100534 -T 0.099726
n -t 5.600000 -s 5 -x 5.130000 -y 1809.650000 -U 0.000000 -V 0.000000 -T 0.000000
n -t 5.600000 -s 4 -x 3429.830228 -y 1928.259949 -U 1.366472 -V 0.098259 -T 0.102286
n -t 5.700000 -s 0 -x 39.191850 -y 1810.359856 -U 11.628271 -V 0.200518 -T 0.100458
n -t 5.700000 -s 1 -x 3466.360137 -y 27.725789 -U -0.299876 -V 9.395215 -T 0.100499
n -t 5.700000 -s 2 -x 3398.157565 -y 1911.997565 -U 5.366940 -V 5.366940 -T 0.101070
n -t 5.700000 -s 3 -x 12.960000 -y 1809.810000 -U 5.759144 -V 0.099296 -T 0.100709
n -t 5.700000 -s 5 -x 5.130000 -y 1809.650000 -U 0.260000 -V 0.000000 -T 0.076923
n -t 5.700000 -s 4 -x 3429.966876 -y 1928.269775 -U 1.566925 -V 0.098215 -T 0.104105
n -t 5.800000 -s 0 -x 40.354677 -y 1810.379908 -U 11.826190 -V 0.300231 -T 0.100229
n -t 5.800000 -s 1 -x 3466.330150 -y 28.665311 -U -0.298048 -V 9.635391 -T 0.101157
n -t 5.800000 -s 2 -x 3398.694259 -y 1912.534259 -U 5.494220 -V 5.494220 -T 0.101150
n -t 5.800000 -s 3 -x 13.535914 -y 1809.819930 -U 5.966708 -V 0.198241 -T 0.101243
n -t 5.800000 -s 5 -x 5.150000 -y 1809.650000 -U 0.500000 -V 0.000000 -T 0.100000
n -t 5.800000 -s 4 -x 3430.123568 -y 1928.279597 -U 1.819996 -V 0.003936 -T 0.102435
n -t 5.900000 -s 0 -x 41.537296 -y 1810.409931 -U 11.988331 -V 0.200041 -T 0.100323
n -t 5.900000 -s 1 -x 3466.300345 -y 29.628850 -U -0.302037 -V 9.865378 -T 0.100468
n -t 5.900000 -s 2 -x 3399.243681 -y 1913.083681 -U 5.656854 -V 5.656854 -T 0.100112
n -t 5.900000 -s 3 -x 14.132585 -y 1809.839754 -U 6.219171 -V 0.101566 -T 0.100884
n -t 5.900000 -s 5 -x 5.200000 -y 1809.650000 -U 0.750000 -V 0.000000 -T 0.106667
n -t 5.900000 -s 4 -x 3430.305568 -y 1928.279990 -U 2.057759 -V 0.096055 -T 0.104207
n -t 6.000000 -s 0 -x 42.736129 -y 1810.429935 -U 12.126281 -V 0.300338 -T 0.100103
n -t 6.000000 -s 1 -x 3466.270141 -y 30.615388 -U -0.297534 -V 10.015582 -T 0.101303
n -t 6.000000 -s 2 -x 3399.809367 -y 1913.649367 -U 5.798276 -V 5.798276 -T 0.100139
n -t 6.000000 -s 3 -x 14.754502 -y 1809.849910 -U 6.429215 -V 0.100495 -T 0.100401
n -t 6.000000 -s 5 -x 5.275000 -y 1809.650000 -U 1.000000 -V 0.000000 -T 0.105000
n -t 6.000000 -s 4 -x 3430.511344 -y 1928.289596 -U 2.297818 -V 0.100172 -T 0.103862
n -t 6.000000 -s 6 -x 944.010000 -y 1683.930000 -U 0.000000 -V 0.000000 -T 0.000000
n -t 6.100000 -s 0 -x 43.948757 -y 1810.459969 -U 12.356384 -V 0.298952 -T 0.100454
n -t 6.100000 -s 1 -x 3466.240388 -y 31.616946 -U -0.301947 -V 10.165517 -T 0.100640
n -t 6.100000 -s 2 -x 3400.389194 -y 1914.229194 -U 5.932626 -V 5.932626 -T 0.099586
n -t 6.100000 -s 3 -x 15.397424 -y 1809.859960 -U 6.566997 -V 0.198625 -T 0.100895
n -t 6.100000 -s 5 -x 5.375000 -y 1809.650000 -U 1.250000 -V 0.000000 -T 0.100000
n -t 6.100000 -s 4 -x 3430.741125 -y 1928.299613 -U 2.451788 -V 0.200841 -T 0.101507
n -t 6.100000 -s 6 -x 944.010000 -y 1683.930000 -U 0.250000 -V 0.000000 -T 0.080000
n -t 6.200000 -s 0 -x 45.184395 -y 1810.489864 -U 12.608404 -V 0.200598 -T 0.100378
n -t 6.200000 -s 1 -x 3466.210193 -y 32.633497 -U -0.400272 -V 10.322242 -T 0.100414
n -t 6.200000 -s 2 -x 3400.980000 -y 1914.820000 -U 6.045763 -V 6.045763 -T 0.100897
n -t 6.200000 -s 3 -x 16.054123 -y 1809.879822 -U 6.759234 -V 0.101784 -T 0.099993
n -t 6.200000 -s 5 -x 5.500000 -y 1809.650000 -U 1.496678 -V 0.099779 -T 0.100222
n -t 6.200000 -s 4 -x 3430.986304 -y 1928.319697 -U 2.627995 -V 0.102677 -T 0.100341
n -t 6.200000 -s 6 -x 944.030000 -y 1683.930000 -U 0.510000 -V 0.000000 -T 0.098039
n -t 6.300000 -s 0 -x 46.445236 -y 1810.509924 -U 12.806491 -V 0.299795 -T 0.100321
n -t 6.300000 -s 1 -x 3466.170166 -y 33.665722 -U -0.299759 -V 10.575753 -T 0.100634
n -t 6.300000 -s 2 -x 3401.584576 -y 1915.424576 -U 6.187184 -V 6.187184 -T 0.101084
n -t 6.300000 -s 3 -x 16.730000 -y 1809.890000 -U 7.019304 -V 0.098863 -T 0.101150
n -t 6.300000 -s 5 -x 5.649668 -y 1809.659978 -U 1.710000 -V 0.000210 -T 0.105457
n -t 6.300000 -s 4 -x 3431.249104 -y 1928.329965 -U 2.788221 -V 0.099609 -T 0.100744
n -t 6.300000 -s 6 -x 944.080000 -y 1683.930000 -U 0.740000 -V 0.000000 -T 0.108108
n -t 6.400000 -s 0 -x 47.725885 -y 1810.539904 -U 12.986542 -V 0.299703 -T 0.100421
n -t 6.400000 -s 1 -x 3466.140190 -y 34.723297 -U -0.398778 -V 10.782628 -T 0.100783
n -t 6.400000 -s 2 -x 3402.203295 -y 1916.043295 -U 6.363961 -V 6.363961 -T 0.100049
n -t 6.400000 -s 3 -x 17.431930 -y 1809.899886 -U 7.247235 -V 0.200212 -T 0.100462
n -t 6.400000 -s 5 -x 5.820668 -y 1809.659999 -U 1.877383 -V 0.099169 -T 0.100849
n -t 6.400000 -s 4 -x 3431.527926 -y 1928.339926 -U 2.973442 -V 0.197598 -T 0.101591
n -t 6.400000 -s 6 -x 944.154000 -y 1683.930000 -U 1.000000 -V 0.000000 -T 0.106000
n -t 6.500000 -s 0 -x 49.024539 -y 1810.569874 -U 13.168482 -V 0.199952 -T 0.100654
n -t 6.500000 -s 1 -x 3466.100312 -y 35.801560 -U -0.301230 -V 10.915844 -T 0.100628
n -t 6.500000 -s 2 -x 3402.839691 -y 1916.679691 -U 6.173042 -V 6.173042 -T 0.100487
n -t 6.500000 -s 3 -x 18.156654 -y 1809.919908 -U 7.477341 -V 0.199428 -T 0.100751
n -t 6.500000 -s 5 -x 6.008406 -y 1809.669916 -U 2.080000 -V 0.000828 -T 0.101728
n -t 6.500000 -s 4 -x 3431.825270 -y 1928.359686 -U 3.208382 -V 0.101907 -T 0.101213
n -t 6.500000 -s 6 -x 944.254000 -y 1683.930000 -U 1.196238 -V 0.094940 -T 0.105330
n -t 6.600000 -s 0 -x 50.341387 -y 1810.589869 -U 13.396657 -V 0.299309 -T 0.100668
n -t 6.600000 -s 1 -x 3466.070189 -y 36.893144 -U -0.397411 -V 11.142915 -T 0.101128
n -t 6.600000 -s 2 -x 3403.456995 -y 1917.296995 -U 5.897271 -V 5.897271 -T 0.100556
n -t 6.600000 -s 3 -x 18.904388 -y 1809.939850 -U 7.719339 -V 0.101015 -T 0.100476
n -t 6.600000 -s 5 -x 6.216406 -y 1809.669999 -U 2.300000 -V 0.000014 -T 0.101563
n -t 6.600000 -s 4 -x 3432.146108 -y 1928.369876 -U 3.424142 -V 0.200372 -T 0.100432
n -t 6.600000 -s 6 -x 944.373624 -y 1683.939494 -U 1.409992 -V 0.004875 -T 0.103813
n -t 6.700000 -s 0 -x 51.681053 -y 1810.619800 -U 13.556653 -V 0.301270 -T 0.100242
n -t 6.700000 -s 1 -x 3466.030448 -y 38.007436 -U -0.302624 -V 11.355968 -T 0.100614
n -t 6.700000 -s 2 -x 3404.046722 -y 1917.886722 -U 5.621499 -V 5.621499 -T 0.100201
n -t 6.700000 -s 3 -x 19.676322 -y 1809.949952 -U 7.937468 -V 0.200499 -T 0.099991
n -t 6.700000 -s 5 -x 6.446406 -y 1809.670000 -U 2.437947 -V 0.100083 -T 0.099918
n -t 6.700000 -s 4 -x 3432.488522 -y 1928.389914 -U 3.654661 -V 0.197614 -T 0.101645
n -t 6.700000 -s 6 -x 944.514623 -y 1683.939981 -U 1.617035 -V 0.097961 -T 0.102272
n -t 6.800000 -s 0 -x 53.036718 -y 1810.649927 -U 13.806738 -V 0.300162 -T 0.100189
n -t 6.800000 -s 1 -x 3466.000186 -y 39.143033 -U -0.399196 -V 11.493069 -T 0.100667
n -t 6.800000 -s 2 -x 3404.608872 -y 1918.448872 -U 5.303301 -V 5.303301 -T 0.100150
n -t 6.800000 -s 3 -x 20.470000 -y 1809.970000 -U 8.187565 -V 0.199697 -T 0.100152
n -t 6.800000 -s 5 -x 6.690000 -y 1809.680000 -U 2.688157 -V 0.099561 -T 0.100441
n -t 6.800000 -s 4 -x 3432.853989 -y 1928.409675 -U 3.878682 -V 0.101127 -T 0.102099
n -t 6.800000 -s 6 -x 944.676327 -y 1683.949777 -U 1.849999 -V 0.002126 -T 0.104688
n -t 6.900000 -s 0 -x 54.417392 -y 1810.679943 -U 14.056818 -V 0.299093 -T 0.100493
n -t 6.900000 -s 1 -x 3465.960266 -y 40.292340 -U -0.399466 -V 11.683173 -T 0.100800
n -t 6.900000 -s 2 -x 3405.139202 -y 1918.979202 -U 4.985103 -V 4.985103 -T 0.100459
n -t 6.900000 -s 3 -x 21.288757 -y 1809.989970 -U 8.349407 -V 0.099552 -T 0.100755
n -t 6.900000 -s 5 -x 6.958816 -y 1809.689956 -U 2.880000 -V 0.000434 -T 0.101106
n -t 6.900000 -s 4 -x 3433.241857 -y 1928.419788 -U 4.075006 -V 0.201805 -T 0.100158
n -t 6.900000 -s 6 -x 944.861326 -y 1683.949990 -U 2.037657 -V 0.097745 -T 0.102409
n -t 7.000000 -s 0 -x 55.823074 -y 1810.709853 -U 14.216827 -V 0.300366 -T 0.100369
n -t 7.000000 -s 1 -x 3465.920319 -y 41.460657 -U -0.300737 -V 11.896199 -T 0.100817
n -t 7.000000 -s 2 -x 3405.637712 -y 1919.477712 -U 4.666905 -V 4.666905 -T 0.101199
n -t 7.000000 -s 3 -x 22.123697 -y 1809.999925 -U 8.547651 -V 0.200391 -T 0.100180
n -t 7.000000 -s 5 -x 7.246816 -y 1809.690000 -U 3.088426 -V 0.098618 -T 0.101406
n -t 7.000000 -s 4 -x 3433.649357 -y 1928.439968 -U 4.295355 -V 0.199803 -T 0.100258
n -t 7.000000 -s 6 -x 945.065092 -y 1683.959765 -U 2.279999 -V 0.002285 -T 0.103030
n -t 7.000000 -s 7 -x 3397.890000 -y 2812.720000 -U 0.000000 -V 0.000000 -T 0.000000
n -t 7.100000 -s 0 -x 57.244757 -y 1810.739889 -U 14.446908 -V 0.298924 -T 0.100730
n -t 7.100000 -s 1 -x 3465.890246 -y 42.650277 -U -0.400022 -V 12.123402 -T 0.100609
n -t 7.100000 -s 2 -x 3406.104403 -y 1919.944403 -U 4.348707 -V 4.348707 -T 0.100167
n -t 7.100000 -s 3 -x 22.978462 -y 1810.019964 -U 8.767736 -V 0.199278 -T 0.100543
n -t 7.100000 -s 5 -x 7.555658 -y 1809.699861 -U 3.270000 -V 0.001356 -T 0.102245
n -t 7.100000 -s 4 -x 3434.078893 -y 1928.459949 -U 4.430181 -V 0.295126 -T 0.101826
n -t 7.100000 -s 6 -x 945.293092 -y 1683.959993 -U 2.458136 -V 0.095748 -T 0.104513
n -t 7.100000 -s 7 -x 3397.890000 -y 2812.720000 -U 0.000000 -V -0.260000 -T 0.115385
n -t 7.200000 -s 0 -x 58.689447 -y 1810.769782 -U 14.586878 -V 0.301798 -T 0.100128
n -t 7.200000 -s 1 -x 3465.850244 -y 43.862617 -U -0.401124 -V 12.333479 -T 0.100327
n -t 7.200000 -s 2 -x 3406.539274 -y 1920.379274 -U 4.532554 -V 4.532554 -T 0.101648
n -t 7.200000 -s 3 -x 23.855236 -y 1810.039892 -U 8.927746 -V 0.200636 -T 0.100223
n -t 7.200000 -s 5 -x 7.882658 -y 1809.699997 -U 3.528618 -V 0.098776 -T 0.101270
n -t 7.200000 -s 4 -x 3434.521911 -y 1928.489461 -U 4.595578 -V 0.201645 -T 0.101856
n -t 7.200000 -s 6 -x 945.538906 -y 1683.969568 -U 2.618062 -V 0.100747 -T 0.103548
n -t 7.200000 -s 7 -x 3397.890000 -y 2812.694000 -U 0.091045 -V -0.491641 -T 0.109836
n -t 7.300000 -s 0 -x 60.148135 -y 1810.799961 -U 14.846991 -V 0.298943 -T 0.100483
n -t 7.300000 -s 1 -x 3465.810131 -y 45.095965 -U -0.398243 -V 12.543680 -T 0.100771
n -t 7.300000 -s 2 -x 3406.992529 -y 1920.832529 -U 5.278453 -V 4.077602 -T 0.099929
n -t 7.300000 -s 3 -x 24.748010 -y 1810.059955 -U 9.117798 -V 0.200401 -T 0.100023
n -t 7.300000 -s 5 -x 8.235520 -y 1809.709875 -U 3.718641 -V 0.100547 -T 0.100703
n -t 7.300000 -s 4 -x 3434.981469 -y 1928.509626 -U 4.785840 -V 0.199595 -T 0.102078
n -t 7.300000 -s 6 -x 945.800712 -y 1683.979643 -U 2.769998 -V 0.003422 -T 0.104436
n -t 7.300000 -s 7 -x 3397.899104 -y 2812.644836 -U 0.008735 -V -0.729948 -T 0.102522
n -t 7.400000 -s 0 -x 61.632834 -y 1810.829856 -U 14.987003 -V 0.299750 -T 0.100565
n -t 7.400000 -s 1 -x 3465.770307 -y 46.350333 -U -0.401400 -V 12.743680 -T 0.100416
n -t 7.400000 -s 2 -x 3407.520000 -y 1921.240000 -U 6.095236 -V 3.297423 -T 0.100078
n -t 7.400000 -s 3 -x 25.659790 -y 1810.079995 -U 9.337887 -V 0.198680 -T 0.100688
n -t 7.400000 -s 5 -x 8.607384 -y 1809.719929 -U 3.868728 -V 0.099234 -T 0.101485
n -t 7.400000 -s 4 -x 3435.460053 -y 1928.529585 -U 5.005990 -V 0.200406 -T 0.101867
n -t 7.400000 -s 6 -x 946.077712 -y 1683.979985 -U 2.918399 -V 0.096690 -T 0.103580
n -t 7.400000 -s 7 -x 3397.899978 -y 2812.571841 -U 0.000228 -V -0.950000 -T 0.096675
n -t 7.500000 -s 0 -x 63.131535 -y 1810.859831 -U 15.157009 -V 0.301144 -T 0.100182
n -t 7.500000 -s 1 -x 3465.730167 -y 47.624701 -U -0.498468 -V 12.870351 -T 0.100642
n -t 7.500000 -s 2 -x 3408.129524 -y 1921.569742 -U 6.260456 -V 3.433117 -T 0.099110
n -t 7.500000 -s 3 -x 26.593579 -y 1810.099863 -U 9.527888 -V 0.200601 -T 0.100381
n -t 7.500000 -s 5 -x 8.994257 -y 1809.729853 -U 4.088782 -V 0.099798 -T 0.101679
n -t 7.500000 -s 4 -x 3435.960652 -y 1928.549626 -U 5.161181 -V 0.301853 -T 0.100626
n -t 7.500000 -s 6 -x 946.369551 -y 1683.989654 -U 3.098386 -V 0.100036 -T 0.103424
n -t 7.500000 -s 7 -x 3397.900000 -y 2812.480000 -U 0.000000 -V -1.210000 -T 0.099174
n -t 7.600000 -s 0 -x 64.647235 -y 1810.889945 -U 15.354826 -V 0.398659 -T 0.100474
n -t 7.600000 -s 1 -x 3465.680320 -y 48.911736 -U -0.400486 -V 13.093877 -T 0.100678
n -t 7.600000 -s 2 -x 3408.750000 -y 1921.910000 -U 5.880723 -V 3.189545 -T 0.100328
n -t 7.600000 -s 3 -x 27.546368 -y 1810.119924 -U 9.667945 -V 0.199355 -T 0.100707
n -t 7.600000 -s 5 -x 9.403135 -y 1809.739832 -U 4.228801 -V 0.100726 -T 0.100942
n -t 7.600000 -s 4 -x 3436.476770 -y 1928.579811 -U 5.311494 -V 0.300711 -T 0.100392
n -t 7.600000 -s 6 -x 946.679390 -y 1683.999657 -U 3.308475 -V 0.100461 -T 0.102951
n -t 7.600000 -s 7 -x 3397.900000 -y 2812.360000 -U 0.000000 -V -1.470000 -T 0.102041
n -t 7.700000 -s 0 -x 66.182718 -y 1810.929811 -U 15.497088 -V 0.300423 -T 0.100489
n -t 7.700000 -s 1 -x 3465.640271 -y 50.221124 -U -0.401367 -V 13.343965 -T 0.100336
n -t 7.700000 -s 2 -x 3409.338072 -y 1922.228954 -U 5.478093 -V 2.987992 -T 0.100752
n -t 7.700000 -s 3 -x 28.513162 -y 1810.139859 -U 9.807957 -V 0.200177 -T 0.100616
n -t 7.700000 -s 5 -x 9.826015 -y 1809.749905 -U 4.470000 -V 0.000935 -T 0.101563
n -t 7.700000 -s 4 -x 3437.007919 -y 1928.609882 -U 5.546449 -V 0.198517 -T 0.101341
n -t 7.700000 -s 6 -x 947.010238 -y 1684.009704 -U 3.568539 -V 0.102132 -T 0.100815
n -t 7.700000 -s 7 -x 3397.900000 -y 2812.213000 -U 0.000000 -V -1.680000 -T 0.102976
n -t 7.800000 -s 0 -x 67.732427 -y 1810.959853 -U 15.667103 -V 0.301302 -T 0.100055
n -t 7.800000 -s 1 -x 3465.600135 -y 51.555520 -U -0.399269 -V 13.574129 -T 0.100521
n -t 7.800000 -s 2 -x 3409.885882 -y 1922.527754 -U 5.309759 -V 2.308799 -T 0.100592
n -t 7.800000 -s 3 -x 29.493958 -y 1810.159877 -U 9.978004 -V 0.199585 -T 0.100826
n -t 7.800000 -s 5 -x 10.273015 -y 1809.749999 -U 4.618941 -V 0.098924 -T 0.101102
n -t 7.800000 -s 4 -x 3437.562564 -y 1928.629734 -U 5.682200 -V 0.297831 -T 0.101622
n -t 7.800000 -s 6 -x 947.367091 -y 1684.019917 -U 3.748700 -V 0.098716 -T 0.102144
n -t 7.800000 -s 7 -x 3397.900000 -y 2812.045000 -U 0.000000 -V -1.910000 -T 0.102094
n -t 7.900000 -s 0 -x 69.299137 -y 1810.989983 -U 15.837181 -V 0.298818 -T 0.100451
n -t 7.900000 -s 1 -x 3465.560208 -y 52.912933 -U -0.499917 -V 13.810955 -T 0.100432
n -t 7.900000 -s 2 -x 3410.416858 -y 1922.758634 -U 5.382040 -V 2.292628 -T 0.100918
n -t 7.900000 -s 3 -x 30.491758 -y 1810.179835 -U 10.188041 -V 0.199798 -T 0.100926
n -t 7.900000 -s 5 -x 10.734909 -y 1809.759891 -U 4.768965 -V 0.099383 -T 0.101718
n -t 7.900000 -s 4 -x 3438.130784 -y 1928.659517 -U 5.902368 -V 0.300263 -T 0.101521
n -t 7.900000 -s 6 -x 947.741961 -y 1684.029788 -U 3.938704 -V 0.101047 -T 0.101058
n -t 7.900000 -s 7 -x 3397.900000 -y 2811.854000 -U 0.000000 -V -2.160000 -T 0.103704
n -t 8.000000 -s 0 -x 70.882855 -y 1811.019865 -U 16.085047 -V 0.399204 -T 0.100537
n -t 8.000000 -s 1 -x 3465.510216 -y 54.294029 -U -0.401147 -V 14.024264 -T 0.100253
n -t 8.000000 -s 2 -x 3410.955062 -y 1922.987896 -U 5.310463 -V 2.204877 -T 0.100733
n -t 8.000000 -s 3 -x 31.510562 -y 1810.199815 -U 10.428071 -V 0.200575 -T 0.100636
n -t 8.000000 -s 5 -x 11.211806 -y 1809.769829 -U 4.918975 -V 0.100422 -T 0.101280
n -t 8.000000 -s 4 -x 3438.721021 -y 1928.689543 -U 6.052435 -V 0.302700 -T 0.100617
n -t 8.000000 -s 6 -x 948.135832 -y 1684.039893 -U 4.078786 -V 0.099534 -T 0.101542
n -t 8.000000 -s 7 -x 3397.900000 -y 2811.638000 -U 0.097099 -V -2.408043 -T 0.102988
n -t 8.100000 -s 0 -x 72.491360 -y 1811.059786 -U 16.277199 -V 0.301974 -T 0.100057
n -t 8.100000 -s 1 -x 3465.470101 -y 55.696455 -U -0.497374 -V 14.231311 -T 0.100732
n -t 8.100000 -s 2 -x 3411.486108 -y 1923.208384 -U 5.363888 -V 2.284207 -T 0.101399
n -t 8.100000 -s 3 -x 32.553370 -y 1810.219872 -U 10.668101 -V 0.201309 -T 0.099983