M 0.00000 3 (34.00, 99.00, 0.00), (400.00, 150.00), 20.00
s 1.000000000 _3_ AGT  --- 0 cbr 1000 [0 0 0 0] ------- [3:0 2:0 32 0] [0] 0 0
r 1.000000000 _3_ RTR  --- 0 cbr 1000 [0 0 0 0] ------- [3:0 2:0 32 0] [0] 0 0
s 1.000000000 _3_ RTR  --- 0 AODV 48 [0 0 0 0] ------- [3:255 -1:255 30 0] [0x2 1 1 [2 0] [3 4]] (REQUEST)
s 1.000535000 _3_ MAC  --- 0 AODV 106 [0 ffffffff 3 800] ------- [3:255 -1:255 30 0] [0x2 1 1 [2 0] [3 4]] (REQUEST)
r 1.001383683 _0_ MAC  --- 0 AODV 48 [0 ffffffff 3 800] ------- [3:255 -1:255 30 0] [0x2 1 1 [2 0] [3 4]] (REQUEST)
r 1.001408683 _0_ RTR  --- 0 AODV 48 [0 ffffffff 3 800] ------- [3:255 -1:255 30 0] [0x2 1 1 [2 0] [3 4]] (REQUEST)
s 1.001550730 _0_ RTR  --- 0 AODV 48 [0 ffffffff 3 800] ------- [0:255 -1:255 29 0] [0x2 2 1 [2 0] [3 4]] (REQUEST)
s 1.001925730 _0_ MAC  --- 0 AODV 106 [0 ffffffff 0 800] ------- [0:255 -1:255 29 0] [0x2 2 1 [2 0] [3 4]] (REQUEST)
r 1.002774230 _1_ MAC  --- 0 AODV 48 [0 ffffffff 0 800] ------- [0:255 -1:255 29 0] [0x2 2 1 [2 0] [3 4]] (REQUEST)
r 1.002774413 _3_ MAC  --- 0 AODV 48 [0 ffffffff 0 800] ------- [0:255 -1:255 29 0] [0x2 2 1 [2 0] [3 4]] (REQUEST)
r 1.002799230 _1_ RTR  --- 0 AODV 48 [0 ffffffff 0 800] ------- [0:255 -1:255 29 0] [0x2 2 1 [2 0] [3 4]] (REQUEST)
r 1.002799413 _3_ RTR  --- 0 AODV 48 [0 ffffffff 0 800] ------- [0:255 -1:255 29 0] [0x2 2 1 [2 0] [3 4]] (REQUEST)
s 1.008000000 _3_ AGT  --- 1 cbr 1000 [0 0 0 0] ------- [3:0 2:0 32 0] [1] 0 0
r 1.008000000 _3_ RTR  --- 1 cbr 1000 [0 0 0 0] ------- [3:0 2:0 32 0] [1] 0 0
s 1.010790784 _1_ RTR  --- 0 AODV 48 [0 ffffffff 0 800] ------- [1:255 -1:255 28 0] [0x2 3 1 [2 0] [3 4]] (REQUEST)
s 1.011025784 _1_ MAC  --- 0 AODV 106 [0 ffffffff 1 800] ------- [1:255 -1:255 28 0] [0x2 3 1 [2 0] [3 4]] (REQUEST)
r 1.011874284 _0_ MAC  --- 0 AODV 48 [0 ffffffff 1 800] ------- [1:255 -1:255 28 0] [0x2 3 1 [2 0] [3 4]] (REQUEST)
r 1.011874284 _2_ MAC  --- 0 AODV 48 [0 ffffffff 1 800] ------- [1:255 -1:255 28 0] [0x2 3 1 [2 0] [3 4]] (REQUEST)
r 1.011899284 _0_ RTR  --- 0 AODV 48 [0 ffffffff 1 800] ------- [1:255 -1:255 28 0] [0x2 3 1 [2 0] [3 4]] (REQUEST)
r 1.011899284 _2_ RTR  --- 0 AODV 48 [0 ffffffff 1 800] ------- [1:255 -1:255 28 0] [0x2 3 1 [2 0] [3 4]] (REQUEST)
s 1.011899284 _2_ RTR  --- 0 AODV 44 [0 0 0 0] ------- [2:255 3:255 30 1] [0x4 1 [2 4] 10.000000] (REPLY)
s 1.012194284 _2_ MAC  --- 0 ARP 86 [0 ffffffff 2 806] ------- [REQUEST 2/2 0/1]
r 1.012882784 _1_ MAC  --- 0 ARP 28 [0 ffffffff 2 806] ------- [REQUEST 2/2 0/1]
s 1.013197784 _1_ MAC  --- 0 RTS 44 [52e 2 1 0] 
r 1.013550284 _2_ MAC  --- 0 RTS 44 [52e 2 1 0] 
s 1.013560284 _2_ MAC  --- 0 CTS 38 [3f4 1 0 0] 
r 1.013864784 _1_ MAC  --- 0 CTS 38 [3f4 1 0 0] 
s 1.013874784 _1_ MAC  --- 0 ARP 86 [13a 2 1 806] ------- [REPLY 1/1 2/2]
r 1.014563284 _2_ MAC  --- 0 ARP 28 [13a 2 1 806] ------- [REPLY 1/1 2/2]
s 1.014573284 _2_ MAC  --- 0 ACK 38 [0 1 0 0] 
r 1.014877784 _1_ MAC  --- 0 ACK 38 [0 1 0 0] 
s 1.015027284 _2_ MAC  --- 0 RTS 44 [5ae 1 2 0] 
r 1.015379784 _1_ MAC  --- 0 RTS 44 [5ae 1 2 0] 
s 1.015389784 _1_ MAC  --- 0 CTS 38 [474 2 0 0] 
r 1.015694284 _2_ MAC  --- 0 CTS 38 [474 2 0 0] 
s 1.015704284 _2_ MAC  --- 0 AODV 102 [13a 1 2 800] ------- [2:255 3:255 30 1] [0x4 1 [2 4] 10.000000] (REPLY)
s 1.016000000 _3_ AGT  --- 2 cbr 1000 [0 0 0 0] ------- [3:0 2:0 32 0] [2] 0 0
r 1.016000000 _3_ RTR  --- 2 cbr 1000 [0 0 0 0] ------- [3:0 2:0 32 0] [2] 0 0
r 1.016520784 _1_ MAC  --- 0 AODV 44 [13a 1 2 800] ------- [2:255 3:255 30 1] [0x4 1 [2 4] 10.000000] (REPLY)
s 1.016530784 _1_ MAC  --- 0 ACK 38 [0 2 0 0] 
r 1.016545784 _1_ RTR  --- 0 AODV 44 [13a 1 2 800] ------- [2:255 3:255 30 1] [0x4 1 [2 4] 10.000000] (REPLY)
f 1.016545784 _1_ RTR  --- 0 AODV 44 [13a 1 2 800] ------- [2:255 3:255 29 0] [0x4 2 [2 4] 10.000000] (REPLY)
r 1.016835284 _2_ MAC  --- 0 ACK 38 [0 2 0 0] 
s 1.017044784 _1_ MAC  --- 0 ARP 86 [0 ffffffff 1 806] ------- [REQUEST 1/1 0/0]
r 1.017733284 _0_ MAC  --- 0 ARP 28 [0 ffffffff 1 806] ------- [REQUEST 1/1 0/0]
r 1.017733284 _2_ MAC  --- 0 ARP 28 [0 ffffffff 1 806] ------- [REQUEST 1/1 0/0]
s 1.017948284 _0_ MAC  --- 0 RTS 44 [52e 1 0 0] 
r 1.018300784 _1_ MAC  --- 0 RTS 44 [52e 1 0 0] 
s 1.018310784 _1_ MAC  --- 0 CTS 38 [3f4 0 0 0] 
r 1.018615284 _0_ MAC  --- 0 CTS 38 [3f4 0 0 0] 
s 1.018625284 _0_ MAC  --- 0 ARP 86 [13a 1 0 806] ------- [REPLY 0/0 1/1]
r 1.019313784 _1_ MAC  --- 0 ARP 28 [13a 1 0 806] ------- [REPLY 0/0 1/1]
s 1.019323784 _1_ MAC  --- 0 ACK 38 [0 0 0 0] 
r 1.019628284 _0_ MAC  --- 0 ACK 38 [0 0 0 0] 
s 1.020057784 _1_ MAC  --- 0 RTS 44 [5ae 0 1 0] 
r 1.020410284 _0_ MAC  --- 0 RTS 44 [5ae 0 1 0] 
s 1.020420284 _0_ MAC  --- 0 CTS 38 [474 1 0 0] 
r 1.020724784 _1_ MAC  --- 0 CTS 38 [474 1 0 0] 
s 1.020734784 _1_ MAC  --- 0 AODV 102 [13a 0 1 800] ------- [2:255 3:255 29 0] [0x4 2 [2 4] 10.000000] (REPLY)
r 1.021551284 _0_ MAC  --- 0 AODV 44 [13a 0 1 800] ------- [2:255 3:255 29 0] [0x4 2 [2 4] 10.000000] (REPLY)
s 1.021561284 _0_ MAC  --- 0 ACK 38 [0 1 0 0] 
r 1.021576284 _0_ RTR  --- 0 AODV 44 [13a 0 1 800] ------- [2:255 3:255 29 0] [0x4 2 [2 4] 10.000000] (REPLY)
f 1.021576284 _0_ RTR  --- 0 AODV 44 [13a 0 1 800] ------- [2:255 3:255 28 3] [0x4 3 [2 4] 10.000000] (REPLY)
r 1.021865784 _1_ MAC  --- 0 ACK 38 [0 1 0 0] 
s 1.022155284 _0_ MAC  --- 0 ARP 86 [0 ffffffff 0 806] ------- [REQUEST 0/0 0/3]
r 1.022843784 _1_ MAC  --- 0 ARP 28 [0 ffffffff 0 806] ------- [REQUEST 0/0 0/3]
r 1.022843967 _3_ MAC  --- 0 ARP 28 [0 ffffffff 0 806] ------- [REQUEST 0/0 0/3]
s 1.023238967 _3_ MAC  --- 0 RTS 44 [52e 0 3 0] 
r 1.023591650 _0_ MAC  --- 0 RTS 44 [52e 0 3 0] 
s 1.023601650 _0_ MAC  --- 0 CTS 38 [3f4 3 0 0] 
r 1.023906333 _3_ MAC  --- 0 CTS 38 [3f4 3 0 0] 
s 1.023916333 _3_ MAC  --- 0 ARP 86 [13a 0 3 806] ------- [REPLY 3/3 0/0]
s 1.024000000 _3_ AGT  --- 3 cbr 1000 [0 0 0 0] ------- [3:0 2:0 32 0] [3] 0 0
r 1.024000000 _3_ RTR  --- 3 cbr 1000 [0 0 0 0] ------- [3:0 2:0 32 0] [3] 0 0
r 1.024605015 _0_ MAC  --- 0 ARP 28 [13a 0 3 806] ------- [REPLY 3/3 0/0]
s 1.024615015 _0_ MAC  --- 0 ACK 38 [0 3 0 0] 
r 1.024919698 _3_ MAC  --- 0 ACK 38 [0 3 0 0] 
s 1.025109015 _0_ MAC  --- 0 RTS 44 [5ae 3 0 0] 
r 1.025461698 _3_ MAC  --- 0 RTS 44 [5ae 3 0 0] 
s 1.025471698 _3_ MAC  --- 0 CTS 38 [474 0 0 0] 
r 1.025776381 _0_ MAC  --- 0 CTS 38 [474 0 0 0] 
s 1.025786381 _0_ MAC  --- 0 AODV 102 [13a 3 0 800] ------- [2:255 3:255 28 3] [0x4 3 [2 4] 10.000000] (REPLY)
r 1.026603063 _3_ MAC  --- 0 AODV 44 [13a 3 0 800] ------- [2:255 3:255 28 3] [0x4 3 [2 4] 10.000000] (REPLY)
s 1.026613063 _3_ MAC  --- 0 ACK 38 [0 0 0 0] 
r 1.026628063 _3_ RTR  --- 0 AODV 44 [13a 3 0 800] ------- [2:255 3:255 28 3] [0x4 3 [2 4] 10.000000] (REPLY)
s 1.026628063 _3_ RTR  --- 0 cbr 1020 [0 0 0 0] ------- [3:0 2:0 30 0] [0] 0 0
r 1.026917746 _0_ MAC  --- 0 ACK 38 [0 0 0 0] 
s 1.027167063 _3_ MAC  --- 0 RTS 44 [242e 0 3 0] 
r 1.027519746 _0_ MAC  --- 0 RTS 44 [242e 0 3 0] 
s 1.027529746 _0_ MAC  --- 0 CTS 38 [22f4 3 0 0] 
r 1.027834429 _3_ MAC  --- 0 CTS 38 [22f4 3 0 0] 
s 1.027844429 _3_ MAC  --- 0 cbr 1078 [13a 0 3 800] ------- [3:0 2:0 30 0] [0] 0 0
s 1.032000000 _3_ AGT  --- 4 cbr 1000 [0 0 0 0] ------- [3:0 2:0 32 0] [4] 0 0
r 1.032000000 _3_ RTR  --- 4 cbr 1000 [0 0 0 0] ------- [3:0 2:0 32 0] [4] 0 0
s 1.032000000 _3_ RTR  --- 4 cbr 1020 [0 0 0 0] ------- [3:0 2:0 30 0] [4] 0 0
r 1.036469111 _0_ MAC  --- 0 cbr 1020 [13a 0 3 800] ------- [3:0 2:0 30 0] [0] 1 0
s 1.036479111 _0_ MAC  --- 0 ACK 38 [0 3 0 0] 
r 1.036494111 _0_ RTR  --- 0 cbr 1020 [13a 0 3 800] ------- [3:0 2:0 30 0] [0] 1 0
f 1.036494111 _0_ RTR  --- 0 cbr 1020 [13a 0 3 800] ------- [3:0 2:0 29 1] [0] 1 0
s 1.036628063 _3_ RTR  --- 1 cbr 1020 [0 0 0 0] ------- [3:0 2:0 30 0] [1] 0 0
r 1.036783794 _3_ MAC  --- 0 ACK 38 [0 3 0 0] 
s 1.036853111 _0_ MAC  --- 0 RTS 44 [242e 1 0 0] 
r 1.037205611 _1_ MAC  --- 0 RTS 44 [242e 1 0 0] 
s 1.037215611 _1_ MAC  --- 0 CTS 38 [22f4 0 0 0] 
r 1.037520111 _0_ MAC  --- 0 CTS 38 [22f4 0 0 0] 
s 1.037530111 _0_ MAC  --- 0 cbr 1078 [13a 1 0 800] ------- [3:0 2:0 29 1] [0] 1 0
s 1.040000000 _3_ AGT  --- 5 cbr 1000 [0 0 0 0] ------- [3:0 2:0 32 0] [5] 0 0
r 1.040000000 _3_ RTR  --- 5 cbr 1000 [0 0 0 0] ------- [3:0 2:0 32 0] [5] 0 0
s 1.040000000 _3_ RTR  --- 5 cbr 1020 [0 0 0 0] ------- [3:0 2:0 30 0] [5] 0 0
r 1.046154611 _1_ MAC  --- 0 cbr 1020 [13a 1 0 800] ------- [3:0 2:0 29 1] [0] 2 0
s 1.046164611 _1_ MAC  --- 0 ACK 38 [0 0 0 0] 
r 1.046179611 _1_ RTR  --- 0 cbr 1020 [13a 1 0 800] ------- [3:0 2:0 29 1] [0] 2 0
f 1.046179611 _1_ RTR  --- 0 cbr 1020 [13a 1 0 800] ------- [3:0 2:0 28 2] [0] 2 0
r 1.046469111 _0_ MAC  --- 0 ACK 38 [0 0 0 0] 
s 1.046538611 _1_ MAC  --- 0 RTS 44 [242e 2 1 0] 
s 1.046628063 _3_ RTR  --- 2 cbr 1020 [0 0 0 0] ------- [3:0 2:0 30 0] [2] 0 0
r 1.046891111 _2_ MAC  --- 0 RTS 44 [242e 2 1 0] 
s 1.046901111 _2_ MAC  --- 0 CTS 38 [22f4 1 0 0] 
r 1.047205611 _1_ MAC  --- 0 CTS 38 [22f4 1 0 0] 
s 1.047215611 _1_ MAC  --- 0 cbr 1078 [13a 2 1 800] ------- [3:0 2:0 28 2] [0] 2 0
s 1.048000000 _3_ AGT  --- 6 cbr 1000 [0 0 0 0] ------- [3:0 2:0 32 0] [6] 0 0
r 1.048000000 _3_ RTR  --- 6 cbr 1000 [0 0 0 0] ------- [3:0 2:0 32 0] [6] 0 0
s 1.048000000 _3_ RTR  --- 6 cbr 1020 [0 0 0 0] ------- [3:0 2:0 30 0] [6] 0 0
r 1.055840111 _2_ MAC  --- 0 cbr 1020 [13a 2 1 800] ------- [3:0 2:0 28 2] [0] 3 0
s 1.055850111 _2_ MAC  --- 0 ACK 38 [0 1 0 0] 
r 1.055865111 _2_ AGT  --- 0 cbr 1020 [13a 2 1 800] ------- [3:0 2:0 28 2] [0] 3 0
s 1.056000000 _3_ AGT  --- 7 cbr 1000 [0 0 0 0] ------- [3:0 2:0 32 0] [7] 0 0
r 1.056000000 _3_ RTR  --- 7 cbr 1000 [0 0 0 0] ------- [3:0 2:0 32 0] [7] 0 0
s 1.056000000 _3_ RTR  --- 7 cbr 1020 [0 0 0 0] ------- [3:0 2:0 30 0] [7] 0 0
r 1.056154611 _1_ MAC  --- 0 ACK 38 [0 1 0 0] 
s 1.056628063 _3_ RTR  --- 3 cbr 1020 [0 0 0 0] ------- [3:0 2:0 30 0] [3] 0 0
s 1.056789445 _3_ MAC  --- 0 RTS 44 [242e 0 3 0] 
r 1.057142127 _0_ MAC  --- 0 RTS 44 [242e 0 3 0] 
s 1.057152127 _0_ MAC  --- 0 CTS 38 [22f4 3 0 0] 
r 1.057456809 _3_ MAC  --- 0 CTS 38 [22f4 3 0 0] 
s 1.057466809 _3_ MAC  --- 4 cbr 1078 [13a 0 3 800] ------- [3:0 2:0 30 0] [4] 0 0
s 1.064000000 _3_ AGT  --- 8 cbr 1000 [0 0 0 0] ------- [3:0 2:0 32 0] [8] 0 0
r 1.064000000 _3_ RTR  --- 8 cbr 1000 [0 0 0 0] ------- [3:0 2:0 32 0] [8] 0 0
s 1.064000000 _3_ RTR  --- 8 cbr 1020 [0 0 0 0] ------- [3:0 2:0 30 0] [8] 0 0
r 1.066091491 _0_ MAC  --- 4 cbr 1020 [13a 0 3 800] ------- [3:0 2:0 30 0] [4] 1 0
s 1.066101491 _0_ MAC  --- 0 ACK 38 [0 3 0 0] 
r 1.066116491 _0_ RTR  --- 4 cbr 1020 [13a 0 3 800] ------- [3:0 2:0 30 0] [4] 1 0
f 1.066116491 _0_ RTR  --- 4 cbr 1020 [13a 0 3 800] ------- [3:0 2:0 29 1] [4] 1 0
r 1.066406172 _3_ MAC  --- 0 ACK 38 [0 3 0 0] 
s 1.066475491 _0_ MAC  --- 0 RTS 44 [242e 1 0 0] 
r 1.066827991 _1_ MAC  --- 0 RTS 44 [242e 1 0 0] 
s 1.066837991 _1_ MAC  --- 0 CTS 38 [22f4 0 0 0] 
r 1.067142491 _0_ MAC  --- 0 CTS 38 [22f4 0 0 0] 
s 1.067152491 _0_ MAC  --- 4 cbr 1078 [13a 1 0 800] ------- [3:0 2:0 29 1] [4] 1 0
s 1.072000000 _3_ AGT  --- 9 cbr 1000 [0 0 0 0] ------- [3:0 2:0 32 0] [9] 0 0
r 1.072000000 _3_ RTR  --- 9 cbr 1000 [0 0 0 0] ------- [3:0 2:0 32 0] [9] 0 0
s 1.072000000 _3_ RTR  --- 9 cbr 1020 [0 0 0 0] ------- [3:0 2:0 30 0] [9] 0 0
r 1.075776991 _1_ MAC  --- 4 cbr 1020 [13a 1 0 800] ------- [3:0 2:0 29 1] [4] 2 0
s 1.075786991 _1_ MAC  --- 0 ACK 38 [0 0 0 0] 
r 1.075801991 _1_ RTR  --- 4 cbr 1020 [13a 1 0 800] ------- [3:0 2:0 29 1] [4] 2 0
f 1.075801991 _1_ RTR  --- 4 cbr 1020 [13a 1 0 800] ------- [3:0 2:0 28 2] [4] 2 0
r 1.076091491 _0_ MAC  --- 0 ACK 38 [0 0 0 0] 
s 1.076685923 _3_ MAC  --- 0 RTS 44 [242e 0 3 0] 
r 1.077038605 _0_ MAC  --- 0 RTS 44 [242e 0 3 0] 
s 1.077048605 _0_ MAC  --- 0 CTS 38 [22f4 3 0 0] 
r 1.077353286 _3_ MAC  --- 0 CTS 38 [22f4 3 0 0] 
s 1.077363286 _3_ MAC  --- 1 cbr 1078 [13a 0 3 800] ------- [3:0 2:0 30 0] [1] 0 0
s 1.080000000 _3_ AGT  --- 10 cbr 1000 [0 0 0 0] ------- [3:0 2:0 32 0] [10] 0 0
r 1.080000000 _3_ RTR  --- 10 cbr 1000 [0 0 0 0] ------- [3:0 2:0 32 0] [10] 0 0
s 1.080000000 _3_ RTR  --- 10 cbr 1020 [0 0 0 0] ------- [3:0 2:0 30 0] [10] 0 0
r 1.085987968 _0_ MAC  --- 1 cbr 1020 [13a 0 3 800] ------- [3:0 2:0 30 0] [1] 1 0
s 1.085997968 _0_ MAC  --- 0 ACK 38 [0 3 0 0] 
r 1.086012968 _0_ RTR  --- 1 cbr 1020 [13a 0 3 800] ------- [3:0 2:0 30 0] [1] 1 0
f 1.086012968 _0_ RTR  --- 1 cbr 1020 [13a 0 3 800] ------- [3:0 2:0 29 1] [1] 1 0
r 1.086302649 _3_ MAC  --- 0 ACK 38 [0 3 0 0] 
s 1.086442219 _1_ MAC  --- 0 RTS 44 [242e 2 1 0] 
r 1.086794719 _2_ MAC  --- 0 RTS 44 [242e 2 1 0] 
s 1.086804719 _2_ MAC  --- 0 CTS 38 [22f4 1 0 0] 
r 1.087109219 _1_ MAC  --- 0 CTS 38 [22f4 1 0 0] 
s 1.087119219 _1_ MAC  --- 4 cbr 1078 [13a 2 1 800] ------- [3:0 2:0 28 2] [4] 2 0
s 1.088000000 _3_ AGT  --- 11 cbr 1000 [0 0 0 0] ------- [3:0 2:0 32 0] [11] 0 0
r 1.088000000 _3_ RTR  --- 11 cbr 1000 [0 0 0 0] ------- [3:0 2:0 32 0] [11] 0 0
s 1.088000000 _3_ RTR  --- 11 cbr 1020 [0 0 0 0] ------- [3:0 2:0 30 0] [11] 0 0
r 1.095743719 _2_ MAC  --- 4 cbr 1020 [13a 2 1 800] ------- [3:0 2:0 28 2] [4] 3 0
s 1.095753719 _2_ MAC  --- 0 ACK 38 [0 1 0 0] 
r 1.095768719 _2_ AGT  --- 4 cbr 1020 [13a 2 1 800] ------- [3:0 2:0 28 2] [4] 3 0
s 1.096000000 _3_ AGT  --- 12 cbr 1000 [0 0 0 0] ------- [3:0 2:0 32 0] [12] 0 0
r 1.096000000 _3_ RTR  --- 12 cbr 1000 [0 0 0 0] ------- [3:0 2:0 32 0] [12] 0 0
s 1.096000000 _3_ RTR  --- 12 cbr 1020 [0 0 0 0] ------- [3:0 2:0 30 0] [12] 0 0
r 1.096058219 _1_ MAC  --- 0 ACK 38 [0 1 0 0] 
s 1.096753050 _3_ MAC  --- 0 RTS 44 [242e 0 3 0] 
r 1.097105731 _0_ MAC  --- 0 RTS 44 [242e 0 3 0] 
s 1.097115731 _0_ MAC  --- 0 CTS 38 [22f4 3 0 0] 
r 1.097420412 _3_ MAC  --- 0 CTS 38 [22f4 3 0 0] 
s 1.097430412 _3_ MAC  --- 5 cbr 1078 [13a 0 3 800] ------- [3:0 2:0 30 0] [5] 0 0
s 1.104000000 _3_ AGT  --- 13 cbr 1000 [0 0 0 0] ------- [3:0 2:0 32 0] [13] 0 0
r 1.104000000 _3_ RTR  --- 13 cbr 1000 [0 0 0 0] ------- [3:0 2:0 32 0] [13] 0 0
s 1.104000000 _3_ RTR  --- 13 cbr 1020 [0 0 0 0] ------- [3:0 2:0 30 0] [13] 0 0
r 1.106055093 _0_ MAC  --- 5 cbr 1020 [13a 0 3 800] ------- [3:0 2:0 30 0] [5] 1 0
s 1.106065093 _0_ MAC  --- 0 ACK 38 [0 3 0 0] 
r 1.106080093 _0_ RTR  --- 5 cbr 1020 [13a 0 3 800] ------- [3:0 2:0 30 0] [5] 1 0
f 1.106080093 _0_ RTR  --- 5 cbr 1020 [13a 0 3 800] ------- [3:0 2:0 29 1] [5] 1 0
r 1.106369774 _3_ MAC  --- 0 ACK 38 [0 3 0 0] 
s 1.106599093 _0_ MAC  --- 0 RTS 44 [242e 1 0 0] 
r 1.106951593 _1_ MAC  --- 0 RTS 44 [242e 1 0 0] 
s 1.106961593 _1_ MAC  --- 0 CTS 38 [22f4 0 0 0] 
r 1.107266093 _0_ MAC  --- 0 CTS 38 [22f4 0 0 0] 
s 1.107276093 _0_ MAC  --- 1 cbr 1078 [13a 1 0 800] ------- [3:0 2:0 29 1] [1] 1 0
s 1.112000000 _3_ AGT  --- 14 cbr 1000 [0 0 0 0] ------- [3:0 2:0 32 0] [14] 0 0
r 1.112000000 _3_ RTR  --- 14 cbr 1000 [0 0 0 0] ------- [3:0 2:0 32 0] [14] 0 0
s 1.112000000 _3_ RTR  --- 14 cbr 1020 [0 0 0 0] ------- [3:0 2:0 30 0] [14] 0 0
r 1.115900593 _1_ MAC  --- 1 cbr 1020 [13a 1 0 800] ------- [3:0 2:0 29 1] [1] 2 0
s 1.115910593 _1_ MAC  --- 0 ACK 38 [0 0 0 0] 
r 1.115925593 _1_ RTR  --- 1 cbr 1020 [13a 1 0 800] ------- [3:0 2:0 29 1] [1] 2 0
f 1.115925593 _1_ RTR  --- 1 cbr 1020 [13a 1 0 800] ------- [3:0 2:0 28 2] [1] 2 0
r 1.116215093 _0_ MAC  --- 0 ACK 38 [0 0 0 0] 
s 1.116405093 _0_ MAC  --- 0 RTS 44 [242e 1 0 0] 
r 1.116757593 _1_ MAC  --- 0 RTS 44 [242e 1 0 0] 
s 1.116767593 _1_ MAC  --- 0 CTS 38 [22f4 0 0 0] 
r 1.117072093 _0_ MAC  --- 0 CTS 38 [22f4 0 0 0] 
s 1.117082093 _0_ MAC  --- 5 cbr 1078 [13a 1 0 800] ------- [3:0 2:0 29 1] [5] 1 0
s 1.120000000 _3_ AGT  --- 15 cbr 1000 [0 0 0 0] ------- [3:0 2:0 32 0] [15] 0 0
r 1.120000000 _3_ RTR  --- 15 cbr 1000 [0 0 0 0] ------- [3:0 2:0 32 0] [15] 0 0
s 1.120000000 _3_ RTR  --- 15 cbr 1020 [0 0 0 0] ------- [3:0 2:0 30 0] [15] 0 0
r 1.125706593 _1_ MAC  --- 5 cbr 1020 [13a 1 0 800] ------- [3:0 2:0 29 1] [5] 2 0
s 1.125716593 _1_ MAC  --- 0 ACK 38 [0 0 0 0] 
r 1.125731593 _1_ RTR  --- 5 cbr 1020 [13a 1 0 800] ------- [3:0 2:0 29 1] [5] 2 0
f 1.125731593 _1_ RTR  --- 5 cbr 1020 [13a 1 0 800] ------- [3:0 2:0 28 2] [5] 2 0
r 1.126021093 _0_ MAC  --- 0 ACK 38 [0 0 0 0] 
s 1.126290593 _1_ MAC  --- 0 RTS 44 [242e 2 1 0] 
r 1.126643093 _2_ MAC  --- 0 RTS 44 [242e 2 1 0] 
s 1.126653093 _2_ MAC  --- 0 CTS 38 [22f4 1 0 0] 
r 1.126957593 _1_ MAC  --- 0 CTS 38 [22f4 1 0 0] 
s 1.126967593 _1_ MAC  --- 1 cbr 1078 [13a 2 1 800] ------- [3:0 2:0 28 2] [1] 2 0
s 1.128000000 _3_ AGT  --- 16 cbr 1000 [0 0 0 0] ------- [3:0 2:0 32 0] [16] 0 0
r 1.128000000 _3_ RTR  --- 16 cbr 1000 [0 0 0 0] ------- [3:0 2:0 32 0] [16] 0 0
s 1.128000000 _3_ RTR  --- 16 cbr 1020 [0 0 0 0] ------- [3:0 2:0 30 0] [16] 0 0
r 1.135592093 _2_ MAC  --- 1 cbr 1020 [13a 2 1 800] ------- [3:0 2:0 28 2] [1] 3 0
s 1.135602093 _2_ MAC  --- 0 ACK 38 [0 1 0 0] 
r 1.135617093 _2_ AGT  --- 1 cbr 1020 [13a 2 1 800] ------- [3:0 2:0 28 2] [1] 3 0
r 1.135906593 _1_ MAC  --- 0 ACK 38 [0 1 0 0] 
s 1.136000000 _3_ AGT  --- 17 cbr 1000 [0 0 0 0] ------- [3:0 2:0 32 0] [17] 0 0
r 1.136000000 _3_ RTR  --- 17 cbr 1000 [0 0 0 0] ------- [3:0 2:0 32 0] [17] 0 0
s 1.136000000 _3_ RTR  --- 17 cbr 1020 [0 0 0 0] ------- [3:0 2:0 30 0] [17] 0 0
s 1.136236593 _1_ MAC  --- 0 RTS 44 [242e 2 1 0] 
r 1.136589093 _2_ MAC  --- 0 RTS 44 [242e 2 1 0] 
s 1.136599093 _2_ MAC  --- 0 CTS 38 [22f4 1 0 0] 
r 1.136903593 _1_ MAC  --- 0 CTS 38 [22f4 1 0 0] 
s 1.136913593 _1_ MAC  --- 5 cbr 1078 [13a 2 1 800] ------- [3:0 2:0 28 2] [5] 2 0
s 1.144000000 _3_ AGT  --- 18 cbr 1000 [0 0 0 0] ------- [3:0 2:0 32 0] [18] 0 0
r 1.144000000 _3_ RTR  --- 18 cbr 1000 [0 0 0 0] ------- [3:0 2:0 32 0] [18] 0 0
s 1.144000000 _3_ RTR  --- 18 cbr 1020 [0 0 0 0] ------- [3:0 2:0 30 0] [18] 0 0
r 1.145538093 _2_ MAC  --- 5 cbr 1020 [13a 2 1 800] ------- [3:0 2:0 28 2] [5] 3 0
s 1.145548093 _2_ MAC  --- 0 ACK 38 [0 1 0 0] 
r 1.145563093 _2_ AGT  --- 5 cbr 1020 [13a 2 1 800] ------- [3:0 2:0 28 2] [5] 3 0
r 1.145852593 _1_ MAC  --- 0 ACK 38 [0 1 0 0] 
s 1.146407421 _3_ MAC  --- 0 RTS 44 [242e 0 3 0] 
r 1.146760101 _0_ MAC  --- 0 RTS 44 [242e 0 3 0] 
s 1.146770101 _0_ MAC  --- 0 CTS 38 [22f4 3 0 0] 
r 1.147074781 _3_ MAC  --- 0 CTS 38 [22f4 3 0 0] 
s 1.147084781 _3_ MAC  --- 2 cbr 1078 [13a 0 3 800] ------- [3:0 2:0 30 0] [2] 0 0
s 1.152000000 _3_ AGT  --- 19 cbr 1000 [0 0 0 0] ------- [3:0 2:0 32 0] [19] 0 0
r 1.152000000 _3_ RTR  --- 19 cbr 1000 [0 0 0 0] ------- [3:0 2:0 32 0] [19] 0 0
s 1.152000000 _3_ RTR  --- 19 cbr 1020 [0 0 0 0] ------- [3:0 2:0 30 0] [19] 0 0
r 1.155709460 _0_ MAC  --- 2 cbr 1020 [13a 0 3 800] ------- [3:0 2:0 30 0] [2] 1 0
s 1.155719460 _0_ MAC  --- 0 ACK 38 [0 3 0 0] 
r 1.155734460 _0_ RTR  --- 2 cbr 1020 [13a 0 3 800] ------- [3:0 2:0 30 0] [2] 1 0
f 1.155734460 _0_ RTR  --- 2 cbr 1020 [13a 0 3 800] ------- [3:0 2:0 29 1] [2] 1 0
r 1.156024140 _3_ MAC  --- 0 ACK 38 [0 3 0 0] 
s 1.156173460 _0_ MAC  --- 0 RTS 44 [242e 1 0 0] 
r 1.156525960 _1_ MAC  --- 0 RTS 44 [242e 1 0 0] 
s 1.156535960 _1_ MAC  --- 0 CTS 38 [22f4 0 0 0] 
r 1.156840460 _0_ MAC  --- 0 CTS 38 [22f4 0 0 0] 
s 1.156850460 _0_ MAC  --- 2 cbr 1078 [13a 1 0 800] ------- [3:0 2:0 29 1] [2] 1 0
s 1.160000000 _3_ AGT  --- 20 cbr 1000 [0 0 0 0] ------- [3:0 2:0 32 0] [20] 0 0
r 1.160000000 _3_ RTR  --- 20 cbr 1000 [0 0 0 0] ------- [3:0 2:0 32 0] [20] 0 0
s 1.160000000 _3_ RTR  --- 20 cbr 1020 [0 0 0 0] ------- [3:0 2:0 30 0] [20] 0 0
r 1.165474960 _1_ MAC  --- 2 cbr 1020 [13a 1 0 800] ------- [3:0 2:0 29 1] [2] 2 0
s 1.165484960 _1_ MAC  --- 0 ACK 38 [0 0 0 0] 
r 1.165499960 _1_ RTR  --- 2 cbr 1020 [13a 1 0 800] ------- [3:0 2:0 29 1] [2] 2 0
f 1.165499960 _1_ RTR  --- 2 cbr 1020 [13a 1 0 800] ------- [3:0 2:0 28 2] [2] 2 0
r 1.165789460 _0_ MAC  --- 0 ACK 38 [0 0 0 0] 
s 1.166058960 _1_ MAC  --- 0 RTS 44 [242e 2 1 0] 
r 1.166411460 _2_ MAC  --- 0 RTS 44 [242e 2 1 0] 
s 1.166421460 _2_ MAC  --- 0 CTS 38 [22f4 1 0 0] 
r 1.166725960 _1_ MAC  --- 0 CTS 38 [22f4 1 0 0] 
s 1.166735960 _1_ MAC  --- 2 cbr 1078 [13a 2 1 800] ------- [3:0 2:0 28 2] [2] 2 0
s 1.168000000 _3_ AGT  --- 21 cbr 1000 [0 0 0 0] ------- [3:0 2:0 32 0] [21] 0 0
r 1.168000000 _3_ RTR  --- 21 cbr 1000 [0 0 0 0] ------- [3:0 2:0 32 0] [21] 0 0
s 1.168000000 _3_ RTR  --- 21 cbr 1020 [0 0 0 0] ------- [3:0 2:0 30 0] [21] 0 0
r 1.175360460 _2_ MAC  --- 2 cbr 1020 [13a 2 1 800] ------- [3:0 2:0 28 2] [2] 3 0
s 1.175370460 _2_ MAC  --- 0 ACK 38 [0 1 0 0] 
r 1.175385460 _2_ AGT  --- 2 cbr 1020 [13a 2 1 800] ------- [3:0 2:0 28 2] [2] 3 0
r 1.175674960 _1_ MAC  --- 0 ACK 38 [0 1 0 0] 
s 1.176000000 _3_ AGT  --- 22 cbr 1000 [0 0 0 0] ------- [3:0 2:0 32 0] [22] 0 0
r 1.176000000 _3_ RTR  --- 22 cbr 1000 [0 0 0 0] ------- [3:0 2:0 32 0] [22] 0 0
s 1.176000000 _3_ RTR  --- 22 cbr 1020 [0 0 0 0] ------- [3:0 2:0 30 0] [22] 0 0
s 1.176529787 _3_ MAC  --- 0 RTS 44 [242e 0 3 0] 
r 1.176882466 _0_ MAC  --- 0 RTS 44 [242e 0 3 0] 
s 1.176892466 _0_ MAC  --- 0 CTS 38 [22f4 3 0 0] 
r 1.177197145 _3_ MAC  --- 0 CTS 38 [22f4 3 0 0] 
s 1.177207145 _3_ MAC  --- 6 cbr 1078 [13a 0 3 800] ------- [3:0 2:0 30 0] [6] 0 0
s 1.184000000 _3_ AGT  --- 23 cbr 1000 [0 0 0 0] ------- [3:0 2:0 32 0] [23] 0 0
r 1.184000000 _3_ RTR  --- 23 cbr 1000 [0 0 0 0] ------- [3:0 2:0 32 0] [23] 0 0
s 1.184000000 _3_ RTR  --- 23 cbr 1020 [0 0 0 0] ------- [3:0 2:0 30 0] [23] 0 0
r 1.185831824 _0_ MAC  --- 6 cbr 1020 [13a 0 3 800] ------- [3:0 2:0 30 0] [6] 1 0
s 1.185841824 _0_ MAC  --- 0 ACK 38 [0 3 0 0] 
r 1.185856824 _0_ RTR  --- 6 cbr 1020 [13a 0 3 800] ------- [3:0 2:0 30 0] [6] 1 0
f 1.185856824 _0_ RTR  --- 6 cbr 1020 [13a 0 3 800] ------- [3:0 2:0 29 1] [6] 1 0
r 1.186146503 _3_ MAC  --- 0 ACK 38 [0 3 0 0] 
s 1.186255824 _0_ MAC  --- 0 RTS 44 [242e 1 0 0] 
r 1.186608324 _1_ MAC  --- 0 RTS 44 [242e 1 0 0] 
s 1.186618324 _1_ MAC  --- 0 CTS 38 [22f4 0 0 0] 
r 1.186922824 _0_ MAC  --- 0 CTS 38 [22f4 0 0 0] 
s 1.186932824 _0_ MAC  --- 6 cbr 1078 [13a 1 0 800] ------- [3:0 2:0 29 1] [6] 1 0
s 1.192000000 _3_ AGT  --- 24 cbr 1000 [0 0 0 0] ------- [3:0 2:0 32 0] [24] 0 0
r 1.192000000 _3_ RTR  --- 24 cbr 1000 [0 0 0 0] ------- [3:0 2:0 32 0] [24] 0 0
s 1.192000000 _3_ RTR  --- 24 cbr 1020 [0 0 0 0] ------- [3:0 2:0 30 0] [24] 0 0
r 1.195557324 _1_ MAC  --- 6 cbr 1020 [13a 1 0 800] ------- [3:0 2:0 29 1] [6] 2 0
s 1.195567324 _1_ MAC  --- 0 ACK 38 [0 0 0 0] 
r 1.195582324 _1_ RTR  --- 6 cbr 1020 [13a 1 0 800] ------- [3:0 2:0 29 1] [6] 2 0
f 1.195582324 _1_ RTR  --- 6 cbr 1020 [13a 1 0 800] ------- [3:0 2:0 28 2] [6] 2 0
r 1.195871824 _0_ MAC  --- 0 ACK 38 [0 0 0 0] 
s 1.196261324 _1_ MAC  --- 0 RTS 44 [242e 2 1 0] 
r 1.196613824 _2_ MAC  --- 0 RTS 44 [242e 2 1 0] 
s 1.196623824 _2_ MAC  --- 0 CTS 38 [22f4 1 0 0] 
r 1.196928324 _1_ MAC  --- 0 CTS 38 [22f4 1 0 0] 
s 1.196938324 _1_ MAC  --- 6 cbr 1078 [13a 2 1 800] ------- [3:0 2:0 28 2] [6] 2 0
s 1.200000000 _3_ AGT  --- 25 cbr 1000 [0 0 0 0] ------- [3:0 2:0 32 0] [25] 0 0
r 1.200000000 _3_ RTR  --- 25 cbr 1000 [0 0 0 0] ------- [3:0 2:0 32 0] [25] 0 0
s 1.200000000 _3_ RTR  --- 25 cbr 1020 [0 0 0 0] ------- [3:0 2:0 30 0] [25] 0 0
r 1.205562824 _2_ MAC  --- 6 cbr 1020 [13a 2 1 800] ------- [3:0 2:0 28 2] [6] 3 0
s 1.205572824 _2_ MAC  --- 0 ACK 38 [0 1 0 0] 
r 1.205587824 _2_ AGT  --- 6 cbr 1020 [13a 2 1 800] ------- [3:0 2:0 28 2] [6] 3 0
r 1.205877324 _1_ MAC  --- 0 ACK 38 [0 1 0 0] 
s 1.206372148 _3_ MAC  --- 0 RTS 44 [242e 0 3 0] 
r 1.206724827 _0_ MAC  --- 0 RTS 44 [242e 0 3 0] 
s 1.206734827 _0_ MAC  --- 0 CTS 38 [22f4 3 0 0] 
r 1.207039505 _3_ MAC  --- 0 CTS 38 [22f4 3 0 0] 
s 1.207049505 _3_ MAC  --- 7 cbr 1078 [13a 0 3 800] ------- [3:0 2:0 30 0] [7] 0 0
s 1.208000000 _3_ AGT  --- 26 cbr 1000 [0 0 0 0] ------- [3:0 2:0 32 0] [26] 0 0
r 1.208000000 _3_ RTR  --- 26 cbr 1000 [0 0 0 0] ------- [3:0 2:0 32 0] [26] 0 0
s 1.208000000 _3_ RTR  --- 26 cbr 1020 [0 0 0 0] ------- [3:0 2:0 30 0] [26] 0 0
r 1.215674183 _0_ MAC  --- 7 cbr 1020 [13a 0 3 800] ------- [3:0 2:0 30 0] [7] 1 0
s 1.215684183 _0_ MAC  --- 0 ACK 38 [0 3 0 0] 
r 1.215699183 _0_ RTR  --- 7 cbr 1020 [13a 0 3 800] ------- [3:0 2:0 30 0] [7] 1 0
f 1.215699183 _0_ RTR  --- 7 cbr 1020 [13a 0 3 800] ------- [3:0 2:0 29 1] [7] 1 0
r 1.215988862 _3_ MAC  --- 0 ACK 38 [0 3 0 0] 
s 1.216000000 _3_ AGT  --- 27 cbr 1000 [0 0 0 0] ------- [3:0 2:0 32 0] [27] 0 0
r 1.216000000 _3_ RTR  --- 27 cbr 1000 [0 0 0 0] ------- [3:0 2:0 32 0] [27] 0 0
s 1.216000000 _3_ RTR  --- 27 cbr 1020 [0 0 0 0] ------- [3:0 2:0 30 0] [27] 0 0
s 1.216138183 _0_ MAC  --- 0 RTS 44 [242e 1 0 0] 
r 1.216490683 _1_ MAC  --- 0 RTS 44 [242e 1 0 0] 
s 1.216500683 _1_ MAC  --- 0 CTS 38 [22f4 0 0 0] 
r 1.216805183 _0_ MAC  --- 0 CTS 38 [22f4 0 0 0] 
s 1.216815183 _0_ MAC  --- 7 cbr 1078 [13a 1 0 800] ------- [3:0 2:0 29 1] [7] 1 0
s 1.224000000 _3_ AGT  --- 28 cbr 1000 [0 0 0 0] ------- [3:0 2:0 32 0] [28] 0 0
r 1.224000000 _3_ RTR  --- 28 cbr 1000 [0 0 0 0] ------- [3:0 2:0 32 0] [28] 0 0
s 1.224000000 _3_ RTR  --- 28 cbr 1020 [0 0 0 0] ------- [3:0 2:0 30 0] [28] 0 0
r 1.225439683 _1_ MAC  --- 7 cbr 1020 [13a 1 0 800] ------- [3:0 2:0 29 1] [7] 2 0
s 1.225449683 _1_ MAC  --- 0 ACK 38 [0 0 0 0] 
r 1.225464683 _1_ RTR  --- 7 cbr 1020 [13a 1 0 800] ------- [3:0 2:0 29 1] [7] 2 0
f 1.225464683 _1_ RTR  --- 7 cbr 1020 [13a 1 0 800] ------- [3:0 2:0 28 2] [7] 2 0
r 1.225754183 _0_ MAC  --- 0 ACK 38 [0 0 0 0] 
s 1.226083683 _1_ MAC  --- 0 RTS 44 [242e 2 1 0] 
r 1.226436183 _2_ MAC  --- 0 RTS 44 [242e 2 1 0] 
s 1.226446183 _2_ MAC  --- 0 CTS 38 [22f4 1 0 0] 
r 1.226750683 _1_ MAC  --- 0 CTS 38 [22f4 1 0 0] 
s 1.226760683 _1_ MAC  --- 7 cbr 1078 [13a 2 1 800] ------- [3:0 2:0 28 2] [7] 2 0
s 1.232000000 _3_ AGT  --- 29 cbr 1000 [0 0 0 0] ------- [3:0 2:0 32 0] [29] 0 0
r 1.232000000 _3_ RTR  --- 29 cbr 1000 [0 0 0 0] ------- [3:0 2:0 32 0] [29] 0 0
s 1.232000000 _3_ RTR  --- 29 cbr 1020 [0 0 0 0] ------- [3:0 2:0 30 0] [29] 0 0
r 1.235385183 _2_ MAC  --- 7 cbr 1020 [13a 2 1 800] ------- [3:0 2:0 28 2] [7] 3 0
s 1.235395183 _2_ MAC  --- 0 ACK 38 [0 1 0 0] 
r 1.235410183 _2_ AGT  --- 7 cbr 1020 [13a 2 1 800] ------- [3:0 2:0 28 2] [7] 3 0
r 1.235699683 _1_ MAC  --- 0 ACK 38 [0 1 0 0] 
s 1.236214506 _3_ MAC  --- 0 RTS 44 [242e 0 3 0] 
r 1.236567184 _0_ MAC  --- 0 RTS 44 [242e 0 3 0] 
s 1.236577184 _0_ MAC  --- 0 CTS 38 [22f4 3 0 0] 
r 1.236881861 _3_ MAC  --- 0 CTS 38 [22f4 3 0 0] 
s 1.236891861 _3_ MAC  --- 3 cbr 1078 [13a 0 3 800] ------- [3:0 2:0 30 0] [3] 0 0
s 1.240000000 _3_ AGT  --- 30 cbr 1000 [0 0 0 0] ------- [3:0 2:0 32 0] [30] 0 0
r 1.240000000 _3_ RTR  --- 30 cbr 1000 [0 0 0 0] ------- [3:0 2:0 32 0] [30] 0 0
s 1.240000000 _3_ RTR  --- 30 cbr 1020 [0 0 0 0] ------- [3:0 2:0 30 0] [30] 0 0
r 1.245516539 _0_ MAC  --- 3 cbr 1020 [13a 0 3 800] ------- [3:0 2:0 30 0] [3] 1 0
s 1.245526539 _0_ MAC  --- 0 ACK 38 [0 3 0 0] 
r 1.245541539 _0_ RTR  --- 3 cbr 1020 [13a 0 3 800] ------- [3:0 2:0 30 0] [3] 1 0
f 1.245541539 _0_ RTR  --- 3 cbr 1020 [13a 0 3 800] ------- [3:0 2:0 29 1] [3] 1 0
r 1.245831217 _3_ MAC  --- 0 ACK 38 [0 3 0 0] 
s 1.246000539 _0_ MAC  --- 0 RTS 44 [242e 1 0 0] 
r 1.246353039 _1_ MAC  --- 0 RTS 44 [242e 1 0 0] 
s 1.246363039 _1_ MAC  --- 0 CTS 38 [22f4 0 0 0] 
r 1.246667539 _0_ MAC  --- 0 CTS 38 [22f4 0 0 0] 
s 1.246677539 _0_ MAC  --- 3 cbr 1078 [13a 1 0 800] ------- [3:0 2:0 29 1] [3] 1 0
s 1.248000000 _3_ AGT  --- 31 cbr 1000 [0 0 0 0] ------- [3:0 2:0 32 0] [31] 0 0
r 1.248000000 _3_ RTR  --- 31 cbr 1000 [0 0 0 0] ------- [3:0 2:0 32 0] [31] 0 0
s 1.248000000 _3_ RTR  --- 31 cbr 1020 [0 0 0 0] ------- [3:0 2:0 30 0] [31] 0 0
r 1.255302039 _1_ MAC  --- 3 cbr 1020 [13a 1 0 800] ------- [3:0 2:0 29 1] [3] 2 0
s 1.255312039 _1_ MAC  --- 0 ACK 38 [0 0 0 0] 
r 1.255327039 _1_ RTR  --- 3 cbr 1020 [13a 1 0 800] ------- [3:0 2:0 29 1] [3] 2 0
f 1.255327039 _1_ RTR  --- 3 cbr 1020 [13a 1 0 800] ------- [3:0 2:0 28 2] [3] 2 0
r 1.255616539 _0_ MAC  --- 0 ACK 38 [0 0 0 0] 
s 1.255986039 _1_ MAC  --- 0 RTS 44 [242e 2 1 0] 
s 1.256000000 _3_ AGT  --- 32 cbr 1000 [0 0 0 0] ------- [3:0 2:0 32 0] [32] 0 0
r 1.256000000 _3_ RTR  --- 32 cbr 1000 [0 0 0 0] ------- [3:0 2:0 32 0] [32] 0 0
s 1.256000000 _3_ RTR  --- 32 cbr 1020 [0 0 0 0] ------- [3:0 2:0 30 0] [32] 0 0
r 1.256338539 _2_ MAC  --- 0 RTS 44 [242e 2 1 0] 
s 1.256348539 _2_ MAC  --- 0 CTS 38 [22f4 1 0 0] 
r 1.256653039 _1_ MAC  --- 0 CTS 38 [22f4 1 0 0] 
s 1.256663039 _1_ MAC  --- 3 cbr 1078 [13a 2 1 800] ------- [3:0 2:0 28 2] [3] 2 0
s 1.264000000 _3_ AGT  --- 33 cbr 1000 [0 0 0 0] ------- [3:0 2:0 32 0] [33] 0 0
r 1.264000000 _3_ RTR  --- 33 cbr 1000 [0 0 0 0] ------- [3:0 2:0 32 0] [33] 0 0
s 1.264000000 _3_ RTR  --- 33 cbr 1020 [0 0 0 0] ------- [3:0 2:0 30 0] [33] 0 0
r 1.265287539 _2_ MAC  --- 3 cbr 1020 [13a 2 1 800] ------- [3:0 2:0 28 2] [3] 3 0
s 1.265297539 _2_ MAC  --- 0 ACK 38 [0 1 0 0] 
r 1.265312539 _2_ AGT  --- 3 cbr 1020 [13a 2 1 800] ------- [3:0 2:0 28 2] [3] 3 0
r 1.265602039 _1_ MAC  --- 0 ACK 38 [0 1 0 0] 
s 1.266136860 _3_ MAC  --- 0 RTS 44 [242e 0 3 0] 
r 1.266489537 _0_ MAC  --- 0 RTS 44 [242e 0 3 0] 
s 1.266499537 _0_ MAC  --- 0 CTS 38 [22f4 3 0 0] 
r 1.266804214 _3_ MAC  --- 0 CTS 38 [22f4 3 0 0] 
s 1.266814214 _3_ MAC  --- 8 cbr 1078 [13a 0 3 800] ------- [3:0 2:0 30 0] [8] 0 0
s 1.272000000 _3_ AGT  --- 34 cbr 1000 [0 0 0 0] ------- [3:0 2:0 32 0] [34] 0 0
r 1.272000000 _3_ RTR  --- 34 cbr 1000 [0 0 0 0] ------- [3:0 2:0 32 0] [34] 0 0
s 1.272000000 _3_ RTR  --- 34 cbr 1020 [0 0 0 0] ------- [3:0 2:0 30 0] [34] 0 0
r 1.275438891 _0_ MAC  --- 8 cbr 1020 [13a 0 3 800] ------- [3:0 2:0 30 0] [8] 1 0
s 1.275448891 _0_ MAC  --- 0 ACK 38 [0 3 0 0] 
r 1.275463891 _0_ RTR  --- 8 cbr 1020 [13a 0 3 800] ------- [3:0 2:0 30 0] [8] 1 0
f 1.275463891 _0_ RTR  --- 8 cbr 1020 [13a 0 3 800] ------- [3:0 2:0 29 1] [8] 1 0
r 1.275753568 _3_ MAC  --- 0 ACK 38 [0 3 0 0] 
s 1.275882891 _0_ MAC  --- 0 RTS 44 [242e 1 0 0] 
r 1.276235391 _1_ MAC  --- 0 RTS 44 [242e 1 0 0] 
s 1.276245391 _1_ MAC  --- 0 CTS 38 [22f4 0 0 0] 
r 1.276549891 _0_ MAC  --- 0 CTS 38 [22f4 0 0 0] 
s 1.276559891 _0_ MAC  --- 8 cbr 1078 [13a 1 0 800] ------- [3:0 2:0 29 1] [8] 1 0
s 1.280000000 _3_ AGT  --- 35 cbr 1000 [0 0 0 0] ------- [3:0 2:0 32 0] [35] 0 0
r 1.280000000 _3_ RTR  --- 35 cbr 1000 [0 0 0 0] ------- [3:0 2:0 32 0] [35] 0 0