n -t * -s 0  -x 102 -y 301 -Z 0 -z 20  -v circle -c black
n -t * -s 1  -x 252 -y 301 -Z 0 -z 20  -v circle -c black
n -t * -s 2  -x 402 -y 301 -Z 0 -z 20  -v circle -c black
n -t * -s 3  -x 34 -y 99 -Z 0 -z 20  -v circle -c black
V -t * -v 1.0a5 -a 0
W -t * -x 502 -y 401
A -t * -n 1 -p 0 -o 0x7fffffff -c 30 -a 1
A -t * -h 1 -m 1073741823 -s 0
n -t 0.000000 -s 3 -x 34.000000 -y 99.000000 -U 19.808614 -V 2.760217 -T 18.476810
+ -t 1.000000000 -s 3 -d -1 -p cbr -e 1000 -c 2 -a 0 -i 0 -k AGT 
- -t 1.000000000 -s 3 -d -1 -p cbr -e 1000 -c 2 -a 0 -i 0 -k AGT
h -t 1.000000000 -s 3 -d -1 -p cbr -e 1000 -c 2 -a 0 -i 0 -k AGT
+ -t 1.000000000 -s 3 -d -1 -p AODV -e 48 -c 2 -a 0 -i 0 -k RTR 
- -t 1.000000000 -s 3 -d -1 -p AODV -e 48 -c 2 -a 0 -i 0 -k RTR
h -t 1.000000000 -s 3 -d -1 -p AODV -e 48 -c 2 -a 0 -i 0 -k RTR
+ -t 1.000535000 -s 3 -d -1 -p AODV -e 106 -c 2 -a 0 -i 0 -k MAC 
- -t 1.000535000 -s 3 -d -1 -p AODV -e 106 -c 2 -a 0 -i 0 -k MAC
h -t 1.000535000 -s 3 -d -1 -p AODV -e 106 -c 2 -a 0 -i 0 -k MAC
r -t 1.001383683 -s 0 -d -1 -p AODV -e 48 -c 2 -a 0 -i 0 -k MAC
r -t 1.001408683 -s 0 -d -1 -p AODV -e 48 -c 2 -a 0 -i 0 -k RTR
+ -t 1.001550730 -s 0 -d -1 -p AODV -e 48 -c 2 -a 0 -i 0 -k RTR 
- -t 1.001550730 -s 0 -d -1 -p AODV -e 48 -c 2 -a 0 -i 0 -k RTR
h -t 1.001550730 -s 0 -d -1 -p AODV -e 48 -c 2 -a 0 -i 0 -k RTR
+ -t 1.001925730 -s 0 -d -1 -p AODV -e 106 -c 2 -a 0 -i 0 -k MAC 
- -t 1.001925730 -s 0 -d -1 -p AODV -e 106 -c 2 -a 0 -i 0 -k MAC
h -t 1.001925730 -s 0 -d -1 -p AODV -e 106 -c 2 -a 0 -i 0 -k MAC
r -t 1.002774230 -s 1 -d -1 -p AODV -e 48 -c 2 -a 0 -i 0 -k MAC
r -t 1.002774413 -s 3 -d -1 -p AODV -e 48 -c 2 -a 0 -i 0 -k MAC
r -t 1.002799230 -s 1 -d -1 -p AODV -e 48 -c 2 -a 0 -i 0 -k RTR
r -t 1.002799413 -s 3 -d -1 -p AODV -e 48 -c 2 -a 0 -i 0 -k RTR
+ -t 1.008000000 -s 3 -d -1 -p cbr -e 1000 -c 2 -a 0 -i 1 -k AGT 
- -t 1.008000000 -s 3 -d -1 -p cbr -e 1000 -c 2 -a 0 -i 1 -k AGT
h -t 1.008000000 -s 3 -d -1 -p cbr -e 1000 -c 2 -a 0 -i 1 -k AGT
+ -t 1.010790784 -s 1 -d -1 -p AODV -e 48 -c 2 -a 0 -i 0 -k RTR 
- -t 1.010790784 -s 1 -d -1 -p AODV -e 48 -c 2 -a 0 -i 0 -k RTR
h -t 1.010790784 -s 1 -d -1 -p AODV -e 48 -c 2 -a 0 -i 0 -k RTR
+ -t 1.011025784 -s 1 -d -1 -p AODV -e 106 -c 2 -a 0 -i 0 -k MAC 
- -t 1.011025784 -s 1 -d -1 -p AODV -e 106 -c 2 -a 0 -i 0 -k MAC
h -t 1.011025784 -s 1 -d -1 -p AODV -e 106 -c 2 -a 0 -i 0 -k MAC
r -t 1.011874284 -s 0 -d -1 -p AODV -e 48 -c 2 -a 0 -i 0 -k MAC
r -t 1.011874284 -s 2 -d -1 -p AODV -e 48 -c 2 -a 0 -i 0 -k MAC
r -t 1.011899284 -s 0 -d -1 -p AODV -e 48 -c 2 -a 0 -i 0 -k RTR
r -t 1.011899284 -s 2 -d -1 -p AODV -e 48 -c 2 -a 0 -i 0 -k RTR
+ -t 1.011899284 -s 2 -d 1 -p AODV -e 44 -c 2 -a 0 -i 0 -k RTR 
- -t 1.011899284 -s 2 -d 1 -p AODV -e 44 -c 2 -a 0 -i 0 -k RTR
h -t 1.011899284 -s 2 -d 1 -p AODV -e 44 -c 2 -a 0 -i 0 -k RTR
+ -t 1.012194284 -s 2 -d -1 -p ARP -e 86 -c 2 -a 0 -i 0 -k MAC 
- -t 1.012194284 -s 2 -d -1 -p ARP -e 86 -c 2 -a 0 -i 0 -k MAC
h -t 1.012194284 -s 2 -d -1 -p ARP -e 86 -c 2 -a 0 -i 0 -k MAC
r -t 1.012882784 -s 1 -d -1 -p ARP -e 28 -c 2 -a 0 -i 0 -k MAC
+ -t 1.013197784 -s 1 -d -1 -p RTS -e 44 -c 2 -a 0 -i 0 -k MAC 
- -t 1.013197784 -s 1 -d -1 -p RTS -e 44 -c 2 -a 0 -i 0 -k MAC
h -t 1.013197784 -s 1 -d -1 -p RTS -e 44 -c 2 -a 0 -i 0 -k MAC
r -t 1.013550284 -s 2 -d -1 -p RTS -e 44 -c 2 -a 0 -i 0 -k MAC
+ -t 1.013560284 -s 2 -d -1 -p CTS -e 38 -c 2 -a 0 -i 0 -k MAC 
- -t 1.013560284 -s 2 -d -1 -p CTS -e 38 -c 2 -a 0 -i 0 -k MAC
h -t 1.013560284 -s 2 -d -1 -p CTS -e 38 -c 2 -a 0 -i 0 -k MAC
r -t 1.013864784 -s 1 -d -1 -p CTS -e 38 -c 2 -a 0 -i 0 -k MAC
+ -t 1.013874784 -s 1 -d -1 -p ARP -e 86 -c 2 -a 0 -i 0 -k MAC 
- -t 1.013874784 -s 1 -d -1 -p ARP -e 86 -c 2 -a 0 -i 0 -k MAC
h -t 1.013874784 -s 1 -d -1 -p ARP -e 86 -c 2 -a 0 -i 0 -k MAC
r -t 1.014563284 -s 2 -d -1 -p ARP -e 28 -c 2 -a 0 -i 0 -k MAC
+ -t 1.014573284 -s 2 -d -1 -p ACK -e 38 -c 2 -a 0 -i 0 -k MAC 
- -t 1.014573284 -s 2 -d -1 -p ACK -e 38 -c 2 -a 0 -i 0 -k MAC
h -t 1.014573284 -s 2 -d -1 -p ACK -e 38 -c 2 -a 0 -i 0 -k MAC
r -t 1.014877784 -s 1 -d -1 -p ACK -e 38 -c 2 -a 0 -i 0 -k MAC
+ -t 1.015027284 -s 2 -d -1 -p RTS -e 44 -c 2 -a 0 -i 0 -k MAC 
- -t 1.015027284 -s 2 -d -1 -p RTS -e 44 -c 2 -a 0 -i 0 -k MAC
h -t 1.015027284 -s 2 -d -1 -p RTS -e 44 -c 2 -a 0 -i 0 -k MAC
r -t 1.015379784 -s 1 -d -1 -p RTS -e 44 -c 2 -a 0 -i 0 -k MAC
+ -t 1.015389784 -s 1 -d -1 -p CTS -e 38 -c 2 -a 0 -i 0 -k MAC 
- -t 1.015389784 -s 1 -d -1 -p CTS -e 38 -c 2 -a 0 -i 0 -k MAC
h -t 1.015389784 -s 1 -d -1 -p CTS -e 38 -c 2 -a 0 -i 0 -k MAC
r -t 1.015694284 -s 2 -d -1 -p CTS -e 38 -c 2 -a 0 -i 0 -k MAC
+ -t 1.015704284 -s 2 -d 1 -p AODV -e 102 -c 2 -a 0 -i 0 -k MAC 
- -t 1.015704284 -s 2 -d 1 -p AODV -e 102 -c 2 -a 0 -i 0 -k MAC
h -t 1.015704284 -s 2 -d 1 -p AODV -e 102 -c 2 -a 0 -i 0 -k MAC
+ -t 1.016000000 -s 3 -d -1 -p cbr -e 1000 -c 2 -a 0 -i 2 -k AGT 
- -t 1.016000000 -s 3 -d -1 -p cbr -e 1000 -c 2 -a 0 -i 2 -k AGT
h -t 1.016000000 -s 3 -d -1 -p cbr -e 1000 -c 2 -a 0 -i 2 -k AGT
r -t 1.016520784 -s 1 -d 1 -p AODV -e 44 -c 2 -a 0 -i 0 -k MAC
+ -t 1.016530784 -s 1 -d -1 -p ACK -e 38 -c 2 -a 0 -i 0 -k MAC 
- -t 1.016530784 -s 1 -d -1 -p ACK -e 38 -c 2 -a 0 -i 0 -k MAC
h -t 1.016530784 -s 1 -d -1 -p ACK -e 38 -c 2 -a 0 -i 0 -k MAC
+ -t 1.016545784 -s 1 -d 0 -p AODV -e 44 -c 2 -a 0 -i 0 -k RTR 
- -t 1.016545784 -s 1 -d 0 -p AODV -e 44 -c 2 -a 0 -i 0 -k RTR
h -t 1.016545784 -s 1 -d 0 -p AODV -e 44 -c 2 -a 0 -i 0 -k RTR
r -t 1.016835284 -s 2 -d -1 -p ACK -e 38 -c 2 -a 0 -i 0 -k MAC
+ -t 1.017044784 -s 1 -d -1 -p ARP -e 86 -c 2 -a 0 -i 0 -k MAC 
- -t 1.017044784 -s 1 -d -1 -p ARP -e 86 -c 2 -a 0 -i 0 -k MAC
h -t 1.017044784 -s 1 -d -1 -p ARP -e 86 -c 2 -a 0 -i 0 -k MAC
r -t 1.017733284 -s 0 -d -1 -p ARP -e 28 -c 2 -a 0 -i 0 -k MAC
r -t 1.017733284 -s 2 -d -1 -p ARP -e 28 -c 2 -a 0 -i 0 -k MAC
+ -t 1.017948284 -s 0 -d -1 -p RTS -e 44 -c 2 -a 0 -i 0 -k MAC 
- -t 1.017948284 -s 0 -d -1 -p RTS -e 44 -c 2 -a 0 -i 0 -k MAC
h -t 1.017948284 -s 0 -d -1 -p RTS -e 44 -c 2 -a 0 -i 0 -k MAC
r -t 1.018300784 -s 1 -d -1 -p RTS -e 44 -c 2 -a 0 -i 0 -k MAC
+ -t 1.018310784 -s 1 -d -1 -p CTS -e 38 -c 2 -a 0 -i 0 -k MAC 
- -t 1.018310784 -s 1 -d -1 -p CTS -e 38 -c 2 -a 0 -i 0 -k MAC
h -t 1.018310784 -s 1 -d -1 -p CTS -e 38 -c 2 -a 0 -i 0 -k MAC
r -t 1.018615284 -s 0 -d -1 -p CTS -e 38 -c 2 -a 0 -i 0 -k MAC
+ -t 1.018625284 -s 0 -d -1 -p ARP -e 86 -c 2 -a 0 -i 0 -k MAC 
- -t 1.018625284 -s 0 -d -1 -p ARP -e 86 -c 2 -a 0 -i 0 -k MAC
h -t 1.018625284 -s 0 -d -1 -p ARP -e 86 -c 2 -a 0 -i 0 -k MAC
r -t 1.019313784 -s 1 -d -1 -p ARP -e 28 -c 2 -a 0 -i 0 -k MAC
+ -t 1.019323784 -s 1 -d -1 -p ACK -e 38 -c 2 -a 0 -i 0 -k MAC 
- -t 1.019323784 -s 1 -d -1 -p ACK -e 38 -c 2 -a 0 -i 0 -k MAC
h -t 1.019323784 -s 1 -d -1 -p ACK -e 38 -c 2 -a 0 -i 0 -k MAC
r -t 1.019628284 -s 0 -d -1 -p ACK -e 38 -c 2 -a 0 -i 0 -k MAC
+ -t 1.020057784 -s 1 -d -1 -p RTS -e 44 -c 2 -a 0 -i 0 -k MAC 
- -t 1.020057784 -s 1 -d -1 -p RTS -e 44 -c 2 -a 0 -i 0 -k MAC
h -t 1.020057784 -s 1 -d -1 -p RTS -e 44 -c 2 -a 0 -i 0 -k MAC
r -t 1.020410284 -s 0 -d -1 -p RTS -e 44 -c 2 -a 0 -i 0 -k MAC
+ -t 1.020420284 -s 0 -d -1 -p CTS -e 38 -c 2 -a 0 -i 0 -k MAC 
- -t 1.020420284 -s 0 -d -1 -p CTS -e 38 -c 2 -a 0 -i 0 -k MAC
h -t 1.020420284 -s 0 -d -1 -p CTS -e 38 -c 2 -a 0 -i 0 -k MAC
r -t 1.020724784 -s 1 -d -1 -p CTS -e 38 -c 2 -a 0 -i 0 -k MAC
+ -t 1.020734784 -s 1 -d 0 -p AODV -e 102 -c 2 -a 0 -i 0 -k MAC 
- -t 1.020734784 -s 1 -d 0 -p AODV -e 102 -c 2 -a 0 -i 0 -k MAC
h -t 1.020734784 -s 1 -d 0 -p AODV -e 102 -c 2 -a 0 -i 0 -k MAC
r -t 1.021551284 -s 0 -d 0 -p AODV -e 44 -c 2 -a 0 -i 0 -k MAC
+ -t 1.021561284 -s 0 -d -1 -p ACK -e 38 -c 2 -a 0 -i 0 -k MAC 
- -t 1.021561284 -s 0 -d -1 -p ACK -e 38 -c 2 -a 0 -i 0 -k MAC
h -t 1.021561284 -s 0 -d -1 -p ACK -e 38 -c 2 -a 0 -i 0 -k MAC
+ -t 1.021576284 -s 0 -d 3 -p AODV -e 44 -c 2 -a 0 -i 0 -k RTR 
- -t 1.021576284 -s 0 -d 3 -p AODV -e 44 -c 2 -a 0 -i 0 -k RTR
h -t 1.021576284 -s 0 -d 3 -p AODV -e 44 -c 2 -a 0 -i 0 -k RTR
r -t 1.021865784 -s 1 -d -1 -p ACK -e 38 -c 2 -a 0 -i 0 -k MAC
+ -t 1.022155284 -s 0 -d -1 -p ARP -e 86 -c 2 -a 0 -i 0 -k MAC 
- -t 1.022155284 -s 0 -d -1 -p ARP -e 86 -c 2 -a 0 -i 0 -k MAC
h -t 1.022155284 -s 0 -d -1 -p ARP -e 86 -c 2 -a 0 -i 0 -k MAC
r -t 1.022843784 -s 1 -d -1 -p ARP -e 28 -c 2 -a 0 -i 0 -k MAC
r -t 1.022843967 -s 3 -d -1 -p ARP -e 28 -c 2 -a 0 -i 0 -k MAC
+ -t 1.023238967 -s 3 -d -1 -p RTS -e 44 -c 2 -a 0 -i 0 -k MAC 
- -t 1.023238967 -s 3 -d -1 -p RTS -e 44 -c 2 -a 0 -i 0 -k MAC
h -t 1.023238967 -s 3 -d -1 -p RTS -e 44 -c 2 -a 0 -i 0 -k MAC
r -t 1.023591650 -s 0 -d -1 -p RTS -e 44 -c 2 -a 0 -i 0 -k MAC
+ -t 1.023601650 -s 0 -d -1 -p CTS -e 38 -c 2 -a 0 -i 0 -k MAC 
- -t 1.023601650 -s 0 -d -1 -p CTS -e 38 -c 2 -a 0 -i 0 -k MAC
h -t 1.023601650 -s 0 -d -1 -p CTS -e 38 -c 2 -a 0 -i 0 -k MAC
r -t 1.023906333 -s 3 -d -1 -p CTS -e 38 -c 2 -a 0 -i 0 -k MAC
+ -t 1.023916333 -s 3 -d -1 -p ARP -e 86 -c 2 -a 0 -i 0 -k MAC 
- -t 1.023916333 -s 3 -d -1 -p ARP -e 86 -c 2 -a 0 -i 0 -k MAC
h -t 1.023916333 -s 3 -d -1 -p ARP -e 86 -c 2 -a 0 -i 0 -k MAC
+ -t 1.024000000 -s 3 -d -1 -p cbr -e 1000 -c 2 -a 0 -i 3 -k AGT 
- -t 1.024000000 -s 3 -d -1 -p cbr -e 1000 -c 2 -a 0 -i 3 -k AGT
h -t 1.024000000 -s 3 -d -1 -p cbr -e 1000 -c 2 -a 0 -i 3 -k AGT
r -t 1.024605015 -s 0 -d -1 -p ARP -e 28 -c 2 -a 0 -i 0 -k MAC
+ -t 1.024615015 -s 0 -d -1 -p ACK -e 38 -c 2 -a 0 -i 0 -k MAC 
- -t 1.024615015 -s 0 -d -1 -p ACK -e 38 -c 2 -a 0 -i 0 -k MAC
h -t 1.024615015 -s 0 -d -1 -p ACK -e 38 -c 2 -a 0 -i 0 -k MAC
r -t 1.024919698 -s 3 -d -1 -p ACK -e 38 -c 2 -a 0 -i 0 -k MAC
+ -t 1.025109015 -s 0 -d -1 -p RTS -e 44 -c 2 -a 0 -i 0 -k MAC 
- -t 1.025109015 -s 0 -d -1 -p RTS -e 44 -c 2 -a 0 -i 0 -k MAC
h -t 1.025109015 -s 0 -d -1 -p RTS -e 44 -c 2 -a 0 -i 0 -k MAC
r -t 1.025461698 -s 3 -d -1 -p RTS -e 44 -c 2 -a 0 -i 0 -k MAC
+ -t 1.025471698 -s 3 -d -1 -p CTS -e 38 -c 2 -a 0 -i 0 -k MAC 
- -t 1.025471698 -s 3 -d -1 -p CTS -e 38 -c 2 -a 0 -i 0 -k MAC
h -t 1.025471698 -s 3 -d -1 -p CTS -e 38 -c 2 -a 0 -i 0 -k MAC
r -t 1.025776381 -s 0 -d -1 -p CTS -e 38 -c 2 -a 0 -i 0 -k MAC
+ -t 1.025786381 -s 0 -d 3 -p AODV -e 102 -c 2 -a 0 -i 0 -k MAC 
- -t 1.025786381 -s 0 -d 3 -p AODV -e 102 -c 2 -a 0 -i 0 -k MAC
h -t 1.025786381 -s 0 -d 3 -p AODV -e 102 -c 2 -a 0 -i 0 -k MAC
r -t 1.026603063 -s 3 -d 3 -p AODV -e 44 -c 2 -a 0 -i 0 -k MAC
+ -t 1.026613063 -s 3 -d -1 -p ACK -e 38 -c 2 -a 0 -i 0 -k MAC 
- -t 1.026613063 -s 3 -d -1 -p ACK -e 38 -c 2 -a 0 -i 0 -k MAC
h -t 1.026613063 -s 3 -d -1 -p ACK -e 38 -c 2 -a 0 -i 0 -k MAC
+ -t 1.026628063 -s 3 -d 0 -p cbr -e 1020 -c 2 -a 0 -i 0 -k RTR 
- -t 1.026628063 -s 3 -d 0 -p cbr -e 1020 -c 2 -a 0 -i 0 -k RTR
h -t 1.026628063 -s 3 -d 0 -p cbr -e 1020 -c 2 -a 0 -i 0 -k RTR
r -t 1.026917746 -s 0 -d -1 -p ACK -e 38 -c 2 -a 0 -i 0 -k MAC
+ -t 1.027167063 -s 3 -d -1 -p RTS -e 44 -c 2 -a 0 -i 0 -k MAC 
- -t 1.027167063 -s 3 -d -1 -p RTS -e 44 -c 2 -a 0 -i 0 -k MAC
h -t 1.027167063 -s 3 -d -1 -p RTS -e 44 -c 2 -a 0 -i 0 -k MAC
r -t 1.027519746 -s 0 -d -1 -p RTS -e 44 -c 2 -a 0 -i 0 -k MAC
+ -t 1.027529746 -s 0 -d -1 -p CTS -e 38 -c 2 -a 0 -i 0 -k MAC 
- -t 1.027529746 -s 0 -d -1 -p CTS -e 38 -c 2 -a 0 -i 0 -k MAC
h -t 1.027529746 -s 0 -d -1 -p CTS -e 38 -c 2 -a 0 -i 0 -k MAC
r -t 1.027834429 -s 3 -d -1 -p CTS -e 38 -c 2 -a 0 -i 0 -k MAC
+ -t 1.027844429 -s 3 -d 0 -p cbr -e 1078 -c 2 -a 0 -i 0 -k MAC 
- -t 1.027844429 -s 3 -d 0 -p cbr -e 1078 -c 2 -a 0 -i 0 -k MAC
h -t 1.027844429 -s 3 -d 0 -p cbr -e 1078 -c 2 -a 0 -i 0 -k MAC
+ -t 1.032000000 -s 3 -d -1 -p cbr -e 1000 -c 2 -a 0 -i 4 -k AGT 
- -t 1.032000000 -s 3 -d -1 -p cbr -e 1000 -c 2 -a 0 -i 4 -k AGT
h -t 1.032000000 -s 3 -d -1 -p cbr -e 1000 -c 2 -a 0 -i 4 -k AGT
+ -t 1.032000000 -s 3 -d 0 -p cbr -e 1020 -c 2 -a 0 -i 4 -k RTR 
- -t 1.032000000 -s 3 -d 0 -p cbr -e 1020 -c 2 -a 0 -i 4 -k RTR
h -t 1.032000000 -s 3 -d 0 -p cbr -e 1020 -c 2 -a 0 -i 4 -k RTR
r -t 1.036469111 -s 0 -d 0 -p cbr -e 1020 -c 2 -a 0 -i 0 -k MAC
+ -t 1.036479111 -s 0 -d -1 -p ACK -e 38 -c 2 -a 0 -i 0 -k MAC 
- -t 1.036479111 -s 0 -d -1 -p ACK -e 38 -c 2 -a 0 -i 0 -k MAC
h -t 1.036479111 -s 0 -d -1 -p ACK -e 38 -c 2 -a 0 -i 0 -k MAC
+ -t 1.036494111 -s 0 -d 1 -p cbr -e 1020 -c 2 -a 0 -i 0 -k RTR 
- -t 1.036494111 -s 0 -d 1 -p cbr -e 1020 -c 2 -a 0 -i 0 -k RTR
h -t 1.036494111 -s 0 -d 1 -p cbr -e 1020 -c 2 -a 0 -i 0 -k RTR
+ -t 1.036628063 -s 3 -d 0 -p cbr -e 1020 -c 2 -a 0 -i 1 -k RTR 
- -t 1.036628063 -s 3 -d 0 -p cbr -e 1020 -c 2 -a 0 -i 1 -k RTR
h -t 1.036628063 -s 3 -d 0 -p cbr -e 1020 -c 2 -a 0 -i 1 -k RTR
r -t 1.036783794 -s 3 -d -1 -p ACK -e 38 -c 2 -a 0 -i 0 -k MAC
+ -t 1.036853111 -s 0 -d -1 -p RTS -e 44 -c 2 -a 0 -i 0 -k MAC 
- -t 1.036853111 -s 0 -d -1 -p RTS -e 44 -c 2 -a 0 -i 0 -k MAC
h -t 1.036853111 -s 0 -d -1 -p RTS -e 44 -c 2 -a 0 -i 0 -k MAC
r -t 1.037205611 -s 1 -d -1 -p RTS -e 44 -c 2 -a 0 -i 0 -k MAC
+ -t 1.037215611 -s 1 -d -1 -p CTS -e 38 -c 2 -a 0 -i 0 -k MAC 
- -t 1.037215611 -s 1 -d -1 -p CTS -e 38 -c 2 -a 0 -i 0 -k MAC
h -t 1.037215611 -s 1 -d -1 -p CTS -e 38 -c 2 -a 0 -i 0 -k MAC
r -t 1.037520111 -s 0 -d -1 -p CTS -e 38 -c 2 -a 0 -i 0 -k MAC
+ -t 1.037530111 -s 0 -d 1 -p cbr -e 1078 -c 2 -a 0 -i 0 -k MAC 
- -t 1.037530111 -s 0 -d 1 -p cbr -e 1078 -c 2 -a 0 -i 0 -k MAC
h -t 1.037530111 -s 0 -d 1 -p cbr -e 1078 -c 2 -a 0 -i 0 -k MAC
+ -t 1.040000000 -s 3 -d -1 -p cbr -e 1000 -c 2 -a 0 -i 5 -k AGT 
- -t 1.040000000 -s 3 -d -1 -p cbr -e 1000 -c 2 -a 0 -i 5 -k AGT
h -t 1.040000000 -s 3 -d -1 -p cbr -e 1000 -c 2 -a 0 -i 5 -k AGT
+ -t 1.040000000 -s 3 -d 0 -p cbr -e 1020 -c 2 -a 0 -i 5 -k RTR 
- -t 1.040000000 -s 3 -d 0 -p cbr -e 1020 -c 2 -a 0 -i 5 -k RTR
h -t 1.040000000 -s 3 -d 0 -p cbr -e 1020 -c 2 -a 0 -i 5 -k RTR
r -t 1.046154611 -s 1 -d 1 -p cbr -e 1020 -c 2 -a 0 -i 0 -k MAC
+ -t 1.046164611 -s 1 -d -1 -p ACK -e 38 -c 2 -a 0 -i 0 -k MAC 
- -t 1.046164611 -s 1 -d -1 -p ACK -e 38 -c 2 -a 0 -i 0 -k MAC
h -t 1.046164611 -s 1 -d -1 -p ACK -e 38 -c 2 -a 0 -i 0 -k MAC
+ -t 1.046179611 -s 1 -d 2 -p cbr -e 1020 -c 2 -a 0 -i 0 -k RTR 
- -t 1.046179611 -s 1 -d 2 -p cbr -e 1020 -c 2 -a 0 -i 0 -k RTR
h -t 1.046179611 -s 1 -d 2 -p cbr -e 1020 -c 2 -a 0 -i 0 -k RTR
r -t 1.046469111 -s 0 -d -1 -p ACK -e 38 -c 2 -a 0 -i 0 -k MAC
+ -t 1.046538611 -s 1 -d -1 -p RTS -e 44 -c 2 -a 0 -i 0 -k MAC 
- -t 1.046538611 -s 1 -d -1 -p RTS -e 44 -c 2 -a 0 -i 0 -k MAC
h -t 1.046538611 -s 1 -d -1 -p RTS -e 44 -c 2 -a 0 -i 0 -k MAC
+ -t 1.046628063 -s 3 -d 0 -p cbr -e 1020 -c 2 -a 0 -i 2 -k RTR 
- -t 1.046628063 -s 3 -d 0 -p cbr -e 1020 -c 2 -a 0 -i 2 -k RTR
h -t 1.046628063 -s 3 -d 0 -p cbr -e 1020 -c 2 -a 0 -i 2 -k RTR
r -t 1.046891111 -s 2 -d -1 -p RTS -e 44 -c 2 -a 0 -i 0 -k MAC
+ -t 1.046901111 -s 2 -d -1 -p CTS -e 38 -c 2 -a 0 -i 0 -k MAC 
- -t 1.046901111 -s 2 -d -1 -p CTS -e 38 -c 2 -a 0 -i 0 -k MAC
h -t 1.046901111 -s 2 -d -1 -p CTS -e 38 -c 2 -a 0 -i 0 -k MAC
r -t 1.047205611 -s 1 -d -1 -p CTS -e 38 -c 2 -a 0 -i 0 -k MAC
+ -t 1.047215611 -s 1 -d 2 -p cbr -e 1078 -c 2 -a 0 -i 0 -k MAC 
- -t 1.047215611 -s 1 -d 2 -p cbr -e 1078 -c 2 -a 0 -i 0 -k MAC
h -t 1.047215611 -s 1 -d 2 -p cbr -e 1078 -c 2 -a 0 -i 0 -k MAC
+ -t 1.048000000 -s 3 -d -1 -p cbr -e 1000 -c 2 -a 0 -i 6 -k AGT 
- -t 1.048000000 -s 3 -d -1 -p cbr -e 1000 -c 2 -a 0 -i 6 -k AGT
h -t 1.048000000 -s 3 -d -1 -p cbr -e 1000 -c 2 -a 0 -i 6 -k AGT
+ -t 1.048000000 -s 3 -d 0 -p cbr -e 1020 -c 2 -a 0 -i 6 -k RTR 
- -t 1.048000000 -s 3 -d 0 -p cbr -e 1020 -c 2 -a 0 -i 6 -k RTR
h -t 1.048000000 -s 3 -d 0 -p cbr -e 1020 -c 2 -a 0 -i 6 -k RTR
r -t 1.055840111 -s 2 -d 2 -p cbr -e 1020 -c 2 -a 0 -i 0 -k MAC
+ -t 1.055850111 -s 2 -d -1 -p ACK -e 38 -c 2 -a 0 -i 0 -k MAC 
- -t 1.055850111 -s 2 -d -1 -p ACK -e 38 -c 2 -a 0 -i 0 -k MAC
h -t 1.055850111 -s 2 -d -1 -p ACK -e 38 -c 2 -a 0 -i 0 -k MAC
r -t 1.055865111 -s 2 -d 2 -p cbr -e 1020 -c 2 -a 0 -i 0 -k AGT
+ -t 1.056000000 -s 3 -d -1 -p cbr -e 1000 -c 2 -a 0 -i 7 -k AGT 
- -t 1.056000000 -s 3 -d -1 -p cbr -e 1000 -c 2 -a 0 -i 7 -k AGT
h -t 1.056000000 -s 3 -d -1 -p cbr -e 1000 -c 2 -a 0 -i 7 -k AGT
+ -t 1.056000000 -s 3 -d 0 -p cbr -e 1020 -c 2 -a 0 -i 7 -k RTR 
- -t 1.056000000 -s 3 -d 0 -p cbr -e 1020 -c 2 -a 0 -i 7 -k RTR
h -t 1.056000000 -s 3 -d 0 -p cbr -e 1020 -c 2 -a 0 -i 7 -k RTR
r -t 1.056154611 -s 1 -d -1 -p ACK -e 38 -c 2 -a 0 -i 0 -k MAC
+ -t 1.056628063 -s 3 -d 0 -p cbr -e 1020 -c 2 -a 0 -i 3 -k RTR 
- -t 1.056628063 -s 3 -d 0 -p cbr -e 1020 -c 2 -a 0 -i 3 -k RTR
h -t 1.056628063 -s 3 -d 0 -p cbr -e 1020 -c 2 -a 0 -i 3 -k RTR
+ -t 1.056789445 -s 3 -d -1 -p RTS -e 44 -c 2 -a 0 -i 0 -k MAC 
- -t 1.056789445 -s 3 -d -1 -p RTS -e 44 -c 2 -a 0 -i 0 -k MAC
h -t 1.056789445 -s 3 -d -1 -p RTS -e 44 -c 2 -a 0 -i 0 -k MAC
r -t 1.057142127 -s 0 -d -1 -p RTS -e 44 -c 2 -a 0 -i 0 -k MAC
+ -t 1.057152127 -s 0 -d -1 -p CTS -e 38 -c 2 -a 0 -i 0 -k MAC 
- -t 1.057152127 -s 0 -d -1 -p CTS -e 38 -c 2 -a 0 -i 0 -k MAC
h -t 1.057152127 -s 0 -d -1 -p CTS -e 38 -c 2 -a 0 -i 0 -k MAC
r -t 1.057456809 -s 3 -d -1 -p CTS -e 38 -c 2 -a 0 -i 0 -k MAC
+ -t 1.057466809 -s 3 -d 0 -p cbr -e 1078 -c 2 -a 0 -i 4 -k MAC 
- -t 1.057466809 -s 3 -d 0 -p cbr -e 1078 -c 2 -a 0 -i 4 -k MAC
h -t 1.057466809 -s 3 -d 0 -p cbr -e 1078 -c 2 -a 0 -i 4 -k MAC
+ -t 1.064000000 -s 3 -d -1 -p cbr -e 1000 -c 2 -a 0 -i 8 -k AGT 
- -t 1.064000000 -s 3 -d -1 -p cbr -e 1000 -c 2 -a 0 -i 8 -k AGT
h -t 1.064000000 -s 3 -d -1 -p cbr -e 1000 -c 2 -a 0 -i 8 -k AGT
+ -t 1.064000000 -s 3 -d 0 -p cbr -e 1020 -c 2 -a 0 -i 8 -k RTR 
- -t 1.064000000 -s 3 -d 0 -p cbr -e 1020 -c 2 -a 0 -i 8 -k RTR
h -t 1.064000000 -s 3 -d 0 -p cbr -e 1020 -c 2 -a 0 -i 8 -k RTR
r -t 1.066091491 -s 0 -d 0 -p cbr -e 1020 -c 2 -a 0 -i 4 -k MAC
+ -t 1.066101491 -s 0 -d -1 -p ACK -e 38 -c 2 -a 0 -i 0 -k MAC 
- -t 1.066101491 -s 0 -d -1 -p ACK -e 38 -c 2 -a 0 -i 0 -k MAC
h -t 1.066101491 -s 0 -d -1 -p ACK -e 38 -c 2 -a 0 -i 0 -k MAC
+ -t 1.066116491 -s 0 -d 1 -p cbr -e 1020 -c 2 -a 0 -i 4 -k RTR 
- -t 1.066116491 -s 0 -d 1 -p cbr -e 1020 -c 2 -a 0 -i 4 -k RTR
h -t 1.066116491 -s 0 -d 1 -p cbr -e 1020 -c 2 -a 0 -i 4 -k RTR
r -t 1.066406172 -s 3 -d -1 -p ACK -e 38 -c 2 -a 0 -i 0 -k MAC
+ -t 1.066475491 -s 0 -d -1 -p RTS -e 44 -c 2 -a 0 -i 0 -k MAC 
- -t 1.066475491 -s 0 -d -1 -p RTS -e 44 -c 2 -a 0 -i 0 -k MAC
h -t 1.066475491 -s 0 -d -1 -p RTS -e 44 -c 2 -a 0 -i 0 -k MAC
r -t 1.066827991 -s 1 -d -1 -p RTS -e 44 -c 2 -a 0 -i 0 -k MAC
+ -t 1.066837991 -s 1 -d -1 -p CTS -e 38 -c 2 -a 0 -i 0 -k MAC 
- -t 1.066837991 -s 1 -d -1 -p CTS -e 38 -c 2 -a 0 -i 0 -k MAC
h -t 1.066837991 -s 1 -d -1 -p CTS -e 38 -c 2 -a 0 -i 0 -k MAC
r -t 1.067142491 -s 0 -d -1 -p CTS -e 38 -c 2 -a 0 -i 0 -k MAC
+ -t 1.067152491 -s 0 -d 1 -p cbr -e 1078 -c 2 -a 0 -i 4 -k MAC 
- -t 1.067152491 -s 0 -d 1 -p cbr -e 1078 -c 2 -a 0 -i 4 -k MAC
h -t 1.067152491 -s 0 -d 1 -p cbr -e 1078 -c 2 -a 0 -i 4 -k MAC
+ -t 1.072000000 -s 3 -d -1 -p cbr -e 1000 -c 2 -a 0 -i 9 -k AGT 
- -t 1.072000000 -s 3 -d -1 -p cbr -e 1000 -c 2 -a 0 -i 9 -k AGT
h -t 1.072000000 -s 3 -d -1 -p cbr -e 1000 -c 2 -a 0 -i 9 -k AGT
+ -t 1.072000000 -s 3 -d 0 -p cbr -e 1020 -c 2 -a 0 -i 9 -k RTR 
- -t 1.072000000 -s 3 -d 0 -p cbr -e 1020 -c 2 -a 0 -i 9 -k RTR
h -t 1.072000000 -s 3 -d 0 -p cbr -e 1020 -c 2 -a 0 -i 9 -k RTR
r -t 1.075776991 -s 1 -d 1 -p cbr -e 1020 -c 2 -a 0 -i 4 -k MAC
+ -t 1.075786991 -s 1 -d -1 -p ACK -e 38 -c 2 -a 0 -i 0 -k MAC 
- -t 1.075786991 -s 1 -d -1 -p ACK -e 38 -c 2 -a 0 -i 0 -k MAC
h -t 1.075786991 -s 1 -d -1 -p ACK -e 38 -c 2 -a 0 -i 0 -k MAC
+ -t 1.075801991 -s 1 -d 2 -p cbr -e 1020 -c 2 -a 0 -i 4 -k RTR 
- -t 1.075801991 -s 1 -d 2 -p cbr -e 1020 -c 2 -a 0 -i 4 -k RTR
h -t 1.075801991 -s 1 -d 2 -p cbr -e 1020 -c 2 -a 0 -i 4 -k RTR
r -t 1.076091491 -s 0 -d -1 -p ACK -e 38 -c 2 -a 0 -i 0 -k MAC
+ -t 1.076685923 -s 3 -d -1 -p RTS -e 44 -c 2 -a 0 -i 0 -k MAC 
- -t 1.076685923 -s 3 -d -1 -p RTS -e 44 -c 2 -a 0 -i 0 -k MAC
h -t 1.076685923 -s 3 -d -1 -p RTS -e 44 -c 2 -a 0 -i 0 -k MAC
r -t 1.077038605 -s 0 -d -1 -p RTS -e 44 -c 2 -a 0 -i 0 -k MAC
+ -t 1.077048605 -s 0 -d -1 -p CTS -e 38 -c 2 -a 0 -i 0 -k MAC 
- -t 1.077048605 -s 0 -d -1 -p CTS -e 38 -c 2 -a 0 -i 0 -k MAC
h -t 1.077048605 -s 0 -d -1 -p CTS -e 38 -c 2 -a 0 -i 0 -k MAC
r -t 1.077353286 -s 3 -d -1 -p CTS -e 38 -c 2 -a 0 -i 0 -k MAC
+ -t 1.077363286 -s 3 -d 0 -p cbr -e 1078 -c 2 -a 0 -i 1 -k MAC 
- -t 1.077363286 -s 3 -d 0 -p cbr -e 1078 -c 2 -a 0 -i 1 -k MAC
h -t 1.077363286 -s 3 -d 0 -p cbr -e 1078 -c 2 -a 0 -i 1 -k MAC
+ -t 1.080000000 -s 3 -d -1 -p cbr -e 1000 -c 2 -a 0 -i 10 -k AGT 
- -t 1.080000000 -s 3 -d -1 -p cbr -e 1000 -c 2 -a 0 -i 10 -k AGT
h -t 1.080000000 -s 3 -d -1 -p cbr -e 1000 -c 2 -a 0 -i 10 -k AGT
+ -t 1.080000000 -s 3 -d 0 -p cbr -e 1020 -c 2 -a 0 -i 10 -k RTR 
- -t 1.080000000 -s 3 -d 0 -p cbr -e 1020 -c 2 -a 0 -i 10 -k RTR
h -t 1.080000000 -s 3 -d 0 -p cbr -e 1020 -c 2 -a 0 -i 10 -k RTR
r -t 1.085987968 -s 0 -d 0 -p cbr -e 1020 -c 2 -a 0 -i 1 -k MAC
+ -t 1.085997968 -s 0 -d -1 -p ACK -e 38 -c 2 -a 0 -i 0 -k MAC 
- -t 1.085997968 -s 0 -d -1 -p ACK -e 38 -c 2 -a 0 -i 0 -k MAC
h -t 1.085997968 -s 0 -d -1 -p ACK -e 38 -c 2 -a 0 -i 0 -k MAC
+ -t 1.086012968 -s 0 -d 1 -p cbr -e 1020 -c 2 -a 0 -i 1 -k RTR 
- -t 1.086012968 -s 0 -d 1 -p cbr -e 1020 -c 2 -a 0 -i 1 -k RTR
h -t 1.086012968 -s 0 -d 1 -p cbr -e 1020 -c 2 -a 0 -i 1 -k RTR
r -t 1.086302649 -s 3 -d -1 -p ACK -e 38 -c 2 -a 0 -i 0 -k MAC
+ -t 1.086442219 -s 1 -d -1 -p RTS -e 44 -c 2 -a 0 -i 0 -k MAC 
- -t 1.086442219 -s 1 -d -1 -p RTS -e 44 -c 2 -a 0 -i 0 -k MAC
h -t 1.086442219 -s 1 -d -1 -p RTS -e 44 -c 2 -a 0 -i 0 -k MAC
r -t 1.086794719 -s 2 -d -1 -p RTS -e 44 -c 2 -a 0 -i 0 -k MAC
+ -t 1.086804719 -s 2 -d -1 -p CTS -e 38 -c 2 -a 0 -i 0 -k MAC 
- -t 1.086804719 -s 2 -d -1 -p CTS -e 38 -c 2 -a 0 -i 0 -k MAC
h -t 1.086804719 -s 2 -d -1 -p CTS -e 38 -c 2 -a 0 -i 0 -k MAC
r -t 1.087109219 -s 1 -d -1 -p CTS -e 38 -c 2 -a 0 -i 0 -k MAC
+ -t 1.087119219 -s 1 -d 2 -p cbr -e 1078 -c 2 -a 0 -i 4 -k MAC 
- -t 1.087119219 -s 1 -d 2 -p cbr -e 1078 -c 2 -a 0 -i 4 -k MAC
h -t 1.087119219 -s 1 -d 2 -p cbr -e 1078 -c 2 -a 0 -i 4 -k MAC
+ -t 1.088000000 -s 3 -d -1 -p cbr -e 1000 -c 2 -a 0 -i 11 -k AGT 
- -t 1.088000000 -s 3 -d -1 -p cbr -e 1000 -c 2 -a 0 -i 11 -k AGT
h -t 1.088000000 -s 3 -d -1 -p cbr -e 1000 -c 2 -a 0 -i 11 -k AGT
+ -t 1.088000000 -s 3 -d 0 -p cbr -e 1020 -c 2 -a 0 -i 11 -k RTR 
- -t 1.088000000 -s 3 -d 0 -p cbr -e 1020 -c 2 -a 0 -i 11 -k RTR
h -t 1.088000000 -s 3 -d 0 -p cbr -e 1020 -c 2 -a 0 -i 11 -k RTR
r -t 1.095743719 -s 2 -d 2 -p cbr -e 1020 -c 2 -a 0 -i 4 -k MAC
+ -t 1.095753719 -s 2 -d -1 -p ACK -e 38 -c 2 -a 0 -i 0 -k MAC 
- -t 1.095753719 -s 2 -d -1 -p ACK -e 38 -c 2 -a 0 -i 0 -k MAC
h -t 1.095753719 -s 2 -d -1 -p ACK -e 38 -c 2 -a 0 -i 0 -k MAC
r -t 1.095768719 -s 2 -d 2 -p cbr -e 1020 -c 2 -a 0 -i 4 -k AGT
+ -t 1.096000000 -s 3 -d -1 -p cbr -e 1000 -c 2 -a 0 -i 12 -k AGT 
- -t 1.096000000 -s 3 -d -1 -p cbr -e 1000 -c 2 -a 0 -i 12 -k AGT
h -t 1.096000000 -s 3 -d -1 -p cbr -e 1000 -c 2 -a 0 -i 12 -k AGT
+ -t 1.096000000 -s 3 -d 0 -p cbr -e 1020 -c 2 -a 0 -i 12 -k RTR 
- -t 1.096000000 -s 3 -d 0 -p cbr -e 1020 -c 2 -a 0 -i 12 -k RTR
h -t 1.096000000 -s 3 -d 0 -p cbr -e 1020 -c 2 -a 0 -i 12 -k RTR
r -t 1.096058219 -s 1 -d -1 -p ACK -e 38 -c 2 -a 0 -i 0 -k MAC
+ -t 1.096753050 -s 3 -d -1 -p RTS -e 44 -c 2 -a 0 -i 0 -k MAC 
- -t 1.096753050 -s 3 -d -1 -p RTS -e 44 -c 2 -a 0 -i 0 -k MAC
h -t 1.096753050 -s 3 -d -1 -p RTS -e 44 -c 2 -a 0 -i 0 -k MAC
r -t 1.097105731 -s 0 -d -1 -p RTS -e 44 -c 2 -a 0 -i 0 -k MAC
+ -t 1.097115731 -s 0 -d -1 -p CTS -e 38 -c 2 -a 0 -i 0 -k MAC 
- -t 1.097115731 -s 0 -d -1 -p CTS -e 38 -c 2 -a 0 -i 0 -k MAC
h -t 1.097115731 -s 0 -d -1 -p CTS -e 38 -c 2 -a 0 -i 0 -k MAC
r -t 1.097420412 -s 3 -d -1 -p CTS -e 38 -c 2 -a 0 -i 0 -k MAC
+ -t 1.097430412 -s 3 -d 0 -p cbr -e 1078 -c 2 -a 0 -i 5 -k MAC 
- -t 1.097430412 -s 3 -d 0 -p cbr -e 1078 -c 2 -a 0 -i 5 -k MAC
h -t 1.097430412 -s 3 -d 0 -p cbr -e 1078 -c 2 -a 0 -i 5 -k MAC
+ -t 1.104000000 -s 3 -d -1 -p cbr -e 1000 -c 2 -a 0 -i 13 -k AGT 
- -t 1.104000000 -s 3 -d -1 -p cbr -e 1000 -c 2 -a 0 -i 13 -k AGT
h -t 1.104000000 -s 3 -d -1 -p cbr -e 1000 -c 2 -a 0 -i 13 -k AGT
+ -t 1.104000000 -s 3 -d 0 -p cbr -e 1020 -c 2 -a 0 -i 13 -k RTR 
- -t 1.104000000 -s 3 -d 0 -p cbr -e 1020 -c 2 -a 0 -i 13 -k RTR
h -t 1.104000000 -s 3 -d 0 -p cbr -e 1020 -c 2 -a 0 -i 13 -k RTR
r -t 1.106055093 -s 0 -d 0 -p cbr -e 1020 -c 2 -a 0 -i 5 -k MAC
+ -t 1.106065093 -s 0 -d -1 -p ACK -e 38 -c 2 -a 0 -i 0 -k MAC 
- -t 1.106065093 -s 0 -d -1 -p ACK -e 38 -c 2 -a 0 -i 0 -k MAC
h -t 1.106065093 -s 0 -d -1 -p ACK -e 38 -c 2 -a 0 -i 0 -k MAC
+ -t 1.106080093 -s 0 -d 1 -p cbr -e 1020 -c 2 -a 0 -i 5 -k RTR 
- -t 1.106080093 -s 0 -d 1 -p cbr -e 1020 -c 2 -a 0 -i 5 -k RTR
h -t 1.106080093 -s 0 -d 1 -p cbr -e 1020 -c 2 -a 0 -i 5 -k RTR
r -t 1.106369774 -s 3 -d -1 -p ACK -e 38 -c 2 -a 0 -i 0 -k MAC
+ -t 1.106599093 -s 0 -d -1 -p RTS -e 44 -c 2 -a 0 -i 0 -k MAC 
- -t 1.106599093 -s 0 -d -1 -p RTS -e 44 -c 2 -a 0 -i 0 -k MAC
h -t 1.106599093 -s 0 -d -1 -p RTS -e 44 -c 2 -a 0 -i 0 -k MAC
r -t 1.106951593 -s 1 -d -1 -p RTS -e 44 -c 2 -a 0 -i 0 -k MAC
+ -t 1.106961593 -s 1 -d -1 -p CTS -e 38 -c 2 -a 0 -i 0 -k MAC 
- -t 1.106961593 -s 1 -d -1 -p CTS -e 38 -c 2 -a 0 -i 0 -k MAC
h -t 1.106961593 -s 1 -d -1 -p CTS -e 38 -c 2 -a 0 -i 0 -k MAC
r -t 1.107266093 -s 0 -d -1 -p CTS -e 38 -c 2 -a 0 -i 0 -k MAC
+ -t 1.107276093 -s 0 -d 1 -p cbr -e 1078 -c 2 -a 0 -i 1 -k MAC 
- -t 1.107276093 -s 0 -d 1 -p cbr -e 1078 -c 2 -a 0 -i 1 -k MAC
h -t 1.107276093 -s 0 -d 1 -p cbr -e 1078 -c 2 -a 0 -i 1 -k MAC
+ -t 1.112000000 -s 3 -d -1 -p cbr -e 1000 -c 2 -a 0 -i 14 -k AGT 
- -t 1.112000000 -s 3 -d -1 -p cbr -e 1000 -c 2 -a 0 -i 14 -k AGT
h -t 1.112000000 -s 3 -d -1 -p cbr -e 1000 -c 2 -a 0 -i 14 -k AGT
+ -t 1.112000000 -s 3 -d 0 -p cbr -e 1020 -c 2 -a 0 -i 14 -k RTR 
- -t 1.112000000 -s 3 -d 0 -p cbr -e 1020 -c 2 -a 0 -i 14 -k RTR
h -t 1.112000000 -s 3 -d 0 -p cbr -e 1020 -c 2 -a 0 -i 14 -k RTR
r -t 1.115900593 -s 1 -d 1 -p cbr -e 1020 -c 2 -a 0 -i 1 -k MAC
+ -t 1.115910593 -s 1 -d -1 -p ACK -e 38 -c 2 -a 0 -i 0 -k MAC 
- -t 1.115910593 -s 1 -d -1 -p ACK -e 38 -c 2 -a 0 -i 0 -k MAC
h -t 1.115910593 -s 1 -d -1 -p ACK -e 38 -c 2 -a 0 -i 0 -k MAC
+ -t 1.115925593 -s 1 -d 2 -p cbr -e 1020 -c 2 -a 0 -i 1 -k RTR 
- -t 1.115925593 -s 1 -d 2 -p cbr -e 1020 -c 2 -a 0 -i 1 -k RTR
h -t 1.115925593 -s 1 -d 2 -p cbr -e 1020 -c 2 -a 0 -i 1 -k RTR
r -t 1.116215093 -s 0 -d -1 -p ACK -e 38 -c 2 -a 0 -i 0 -k MAC
+ -t 1.116405093 -s 0 -d -1 -p RTS -e 44 -c 2 -a 0 -i 0 -k MAC 
- -t 1.116405093 -s 0 -d -1 -p RTS -e 44 -c 2 -a 0 -i 0 -k MAC
h -t 1.116405093 -s 0 -d -1 -p RTS -e 44 -c 2 -a 0 -i 0 -k MAC
r -t 1.116757593 -s 1 -d -1 -p RTS -e 44 -c 2 -a 0 -i 0 -k MAC
+ -t 1.116767593 -s 1 -d -1 -p CTS -e 38 -c 2 -a 0 -i 0 -k MAC 
- -t 1.116767593 -s 1 -d -1 -p CTS -e 38 -c 2 -a 0 -i 0 -k MAC
h -t 1.116767593 -s 1 -d -1 -p CTS -e 38 -c 2 -a 0 -i 0 -k MAC
r -t 1.117072093 -s 0 -d -1 -p CTS -e 38 -c 2 -a 0 -i 0 -k MAC
+ -t 1.117082093 -s 0 -d 1 -p cbr -e 1078 -c 2 -a 0 -i 5 -k MAC 
- -t 1.117082093 -s 0 -d 1 -p cbr -e 1078 -c 2 -a 0 -i 5 -k MAC
h -t 1.117082093 -s 0 -d 1 -p cbr -e 1078 -c 2 -a 0 -i 5 -k MAC
+ -t 1.120000000 -s 3 -d -1 -p cbr -e 1000 -c 2 -a 0 -i 15 -k AGT 
- -t 1.120000000 -s 3 -d -1 -p cbr -e 1000 -c 2 -a 0 -i 15 -k AGT
h -t 1.120000000 -s 3 -d -1 -p cbr -e 1000 -c 2 -a 0 -i 15 -k AGT
+ -t 1.120000000 -s 3 -d 0 -p cbr -e 1020 -c 2 -a 0 -i 15 -k RTR 
- -t 1.120000000 -s 3 -d 0 -p cbr -e 1020 -c 2 -a 0 -i 15 -k RTR
h -t 1.120000000 -s 3 -d 0 -p cbr -e 1020 -c 2 -a 0 -i 15 -k RTR
r -t 1.125706593 -s 1 -d 1 -p cbr -e 1020 -c 2 -a 0 -i 5 -k MAC
+ -t 1.125716593 -s 1 -d -1 -p ACK -e 38 -c 2 -a 0 -i 0 -k MAC 
- -t 1.125716593 -s 1 -d -1 -p ACK -e 38 -c 2 -a 0 -i 0 -k MAC
h -t 1.125716593 -s 1 -d -1 -p ACK -e 38 -c 2 -a 0 -i 0 -k MAC
+ -t 1.125731593 -s 1 -d 2 -p cbr -e 1020 -c 2 -a 0 -i 5 -k RTR 
- -t 1.125731593 -s 1 -d 2 -p cbr -e 1020 -c 2 -a 0 -i 5 -k RTR
h -t 1.125731593 -s 1 -d 2 -p cbr -e 1020 -c 2 -a 0 -i 5 -k RTR
r -t 1.126021093 -s 0 -d -1 -p ACK -e 38 -c 2 -a 0 -i 0 -k MAC
+ -t 1.126290593 -s 1 -d -1 -p RTS -e 44 -c 2 -a 0 -i 0 -k MAC 
- -t 1.126290593 -s 1 -d -1 -p RTS -e 44 -c 2 -a 0 -i 0 -k MAC
h -t 1.126290593 -s 1 -d -1 -p RTS -e 44 -c 2 -a 0 -i 0 -k MAC
r -t 1.126643093 -s 2 -d -1 -p RTS -e 44 -c 2 -a 0 -i 0 -k MAC
+ -t 1.126653093 -s 2 -d -1 -p CTS -e 38 -c 2 -a 0 -i 0 -k MAC 
- -t 1.126653093 -s 2 -d -1 -p CTS -e 38 -c 2 -a 0 -i 0 -k MAC
h -t 1.126653093 -s 2 -d -1 -p CTS -e 38 -c 2 -a 0 -i 0 -k MAC
r -t 1.126957593 -s 1 -d -1 -p CTS -e 38 -c 2 -a 0 -i 0 -k MAC
+ -t 1.126967593 -s 1 -d 2 -p cbr -e 1078 -c 2 -a 0 -i 1 -k MAC 
- -t 1.126967593 -s 1 -d 2 -p cbr -e 1078 -c 2 -a 0 -i 1 -k MAC
h -t 1.126967593 -s 1 -d 2 -p cbr -e 1078 -c 2 -a 0 -i 1 -k MAC
+ -t 1.128000000 -s 3 -d -1 -p cbr -e 1000 -c 2 -a 0 -i 16 -k AGT 
- -t 1.128000000 -s 3 -d -1 -p cbr -e 1000 -c 2 -a 0 -i 16 -k AGT
h -t 1.128000000 -s 3 -d -1 -p cbr -e 1000 -c 2 -a 0 -i 16 -k AGT
+ -t 1.128000000 -s 3 -d 0 -p cbr -e 1020 -c 2 -a 0 -i 16 -k RTR 
- -t 1.128000000 -s 3 -d 0 -p cbr -e 1020 -c 2 -a 0 -i 16 -k RTR
h -t 1.128000000 -s 3 -d 0 -p cbr -e 1020 -c 2 -a 0 -i 16 -k RTR
r -t 1.135592093 -s 2 -d 2 -p cbr -e 1020 -c 2 -a 0 -i 1 -k MAC
+ -t 1.135602093 -s 2 -d -1 -p ACK -e 38 -c 2 -a 0 -i 0 -k MAC 
- -t 1.135602093 -s 2 -d -1 -p ACK -e 38 -c 2 -a 0 -i 0 -k MAC
h -t 1.135602093 -s 2 -d -1 -p ACK -e 38 -c 2 -a 0 -i 0 -k MAC
r -t 1.135617093 -s 2 -d 2 -p cbr -e 1020 -c 2 -a 0 -i 1 -k AGT
r -t 1.135906593 -s 1 -d -1 -p ACK -e 38 -c 2 -a 0 -i 0 -k MAC
+ -t 1.136000000 -s 3 -d -1 -p cbr -e 1000 -c 2 -a 0 -i 17 -k AGT 
- -t 1.136000000 -s 3 -d -1 -p cbr -e 1000 -c 2 -a 0 -i 17 -k AGT
h -t 1.136000000 -s 3 -d -1 -p cbr -e 1000 -c 2 -a 0 -i 17 -k AGT
+ -t 1.136000000 -s 3 -d 0 -p cbr -e 1020 -c 2 -a 0 -i 17 -k RTR 
- -t 1.136000000 -s 3 -d 0 -p cbr -e 1020 -c 2 -a 0 -i 17 -k RTR
h -t 1.136000000 -s 3 -d 0 -p cbr -e 1020 -c 2 -a 0 -i 17 -k RTR
+ -t 1.136236593 -s 1 -d -1 -p RTS -e 44 -c 2 -a 0 -i 0 -k MAC 
- -t 1.136236593 -s 1 -d -1 -p RTS -e 44 -c 2 -a 0 -i 0 -k MAC
h -t 1.136236593 -s 1 -d -1 -p RTS -e 44 -c 2 -a 0 -i 0 -k MAC
r -t 1.136589093 -s 2 -d -1 -p RTS -e 44 -c 2 -a 0 -i 0 -k MAC