V -t * -v 1.0a5 -a 0
W -t * -x 888 -y 952
A -t * -n 1 -p 0 -o 0x7fffffff -c 30 -a 1
A -t * -h 1 -m 1073741823 -s 0
n -t 0.000000 -s 0 -x 53.030000 -y 143.800000 -U 0.000000 -V 0.000000 -T 0.000000
n -t 0.100000 -s 0 -x 53.030000 -y 143.800000 -U -0.229786 -V 0.098480 -T 12.794499
n -t 0.200000 -s 0 -x 53.007021 -y 143.809848 -U -0.447619 -V 0.199342 -T 6.472067
n -t 0.300000 -s 0 -x 52.962259 -y 143.829782 -U -0.677491 -V 0.321723 -T 4.165751
n -t 0.400000 -s 0 -x 52.894510 -y 143.861954 -U -0.871909 -V 0.447408 -T 3.124764
n -t 0.500000 -s 0 -x 52.807319 -y 143.906695 -U -1.053223 -V 0.595669 -T 2.456574
n -t 0.600000 -s 0 -x 52.701997 -y 143.966262 -U -1.231177 -V 0.784731 -T 1.967220
n -t 0.700000 -s 0 -x 52.578879 -y 144.044735 -U -1.346214 -V 0.971241 -T 1.663094
n -t 0.800000 -s 0 -x 52.444258 -y 144.141859 -U -1.458588 -V 1.217588 -T 1.394676
n -t 0.900000 -s 0 -x 52.298399 -y 144.263618 -U -1.498201 -V 1.471528 -T 1.200373
n -t 1.000000 -s 0 -x 52.148579 -y 144.410771 -U -1.477659 -V 1.723201 -T 1.061530
n -t 1.100000 -s 0 -x 52.000813 -y 144.583091 -U -1.450843 -V 2.072669 -T 0.910377
n -t 1.200000 -s 0 -x 51.855729 -y 144.790358 -U -1.314695 -V 2.358300 -T 0.818235
n -t 1.300000 -s 0 -x 51.724259 -y 145.026188 -U -1.122347 -V 2.674011 -T 0.734407
n -t 1.400000 -s 0 -x 51.612025 -y 145.293589 -U -0.885428 -V 2.970861 -T 0.668631
n -t 1.500000 -s 0 -x 51.523482 -y 145.590675 -U -0.622748 -V 3.230524 -T 0.615790
n -t 1.600000 -s 0 -x 51.461207 -y 145.913728 -U -0.317308 -V 3.495628 -T 0.571077
n -t 1.700000 -s 0 -x 51.429476 -y 146.263290 -U -0.017982 -V 3.769957 -T 0.526985
n -t 1.800000 -s 0 -x 51.427678 -y 146.640286 -U 0.301468 -V 3.898361 -T 0.505267
n -t 1.900000 -s 0 -x 51.457825 -y 147.030122 -U 0.588551 -V 4.087849 -T 0.479440
n -t 2.000000 -s 0 -x 51.516680 -y 147.438907 -U 0.828950 -V 4.219341 -T 0.462416
n -t 2.000000 -s 1 -x 484.030000 -y 381.640000 -U 0.000000 -V 0.000000 -T 0.000000
n -t 2.100000 -s 0 -x 51.599575 -y 147.860841 -U 1.053406 -V 4.364681 -T 0.446575
n -t 2.100000 -s 1 -x 484.030000 -y 381.640000 -U -0.116276 -V -0.232551 -T 0.086003
n -t 2.200000 -s 0 -x 51.704916 -y 148.297309 -U 1.283012 -V 4.490299 -T 0.432642
n -t 2.200000 -s 1 -x 484.020000 -y 381.620000 -U -0.100019 -V -0.500096 -T 0.099981
n -t 2.300000 -s 0 -x 51.833217 -y 148.746339 -U 1.446126 -V 4.608429 -T 0.419592
n -t 2.300000 -s 1 -x 484.010000 -y 381.570000 -U -0.203294 -V -0.711528 -T 0.098380
n -t 2.400000 -s 0 -x 51.977829 -y 149.207182 -U 1.622712 -V 4.761061 -T 0.408064
n -t 2.400000 -s 1 -x 483.990000 -y 381.500000 -U -0.186310 -V -0.931552 -T 0.107348
n -t 2.500000 -s 0 -x 52.140101 -y 149.683288 -U 1.779600 -V 4.949810 -T 0.393290
n -t 2.500000 -s 1 -x 483.971369 -y 381.406845 -U -0.305957 -V -1.139645 -T 0.102527
n -t 2.600000 -s 0 -x 52.318061 -y 150.178269 -U 1.915642 -V 5.134269 -T 0.382086
n -t 2.600000 -s 1 -x 483.940773 -y 381.292880 -U -0.395153 -V -1.384722 -T 0.103183
n -t 2.700000 -s 0 -x 52.509625 -y 150.691696 -U 2.052159 -V 5.339199 -T 0.370524
n -t 2.700000 -s 1 -x 483.901258 -y 381.154408 -U -0.396744 -V -1.580979 -T 0.103991
n -t 2.800000 -s 0 -x 52.714841 -y 151.225616 -U 2.190592 -V 5.564325 -T 0.358423
n -t 2.800000 -s 1 -x 483.861584 -y 380.996310 -U -0.413201 -V -1.751932 -T 0.100638
n -t 2.900000 -s 0 -x 52.933900 -y 151.782048 -U 2.309832 -V 5.753666 -T 0.348986
n -t 2.900000 -s 1 -x 483.820263 -y 380.821117 -U -0.506154 -V -1.924554 -T 0.099305
n -t 3.000000 -s 0 -x 53.164883 -y 152.357415 -U 2.432575 -V 5.962900 -T 0.339195
n -t 3.000000 -s 1 -x 483.770000 -y 380.630000 -U -0.589383 -V -2.161071 -T 0.101801
n -t 3.100000 -s 0 -x 53.408141 -y 152.953705 -U 2.484623 -V 6.082068 -T 0.334803
n -t 3.100000 -s 1 -x 483.711062 -y 380.413893 -U -0.592595 -V -2.366946 -T 0.103041
n -t 3.200000 -s 0 -x 53.656603 -y 153.561912 -U 2.608446 -V 6.290637 -T 0.327167
n -t 3.200000 -s 1 -x 483.651802 -y 380.177198 -U -0.692907 -V -2.578523 -T 0.103625
n -t 3.300000 -s 0 -x 53.917447 -y 154.190975 -U 2.689681 -V 6.451799 -T 0.320690
n -t 3.300000 -s 1 -x 483.582511 -y 379.919346 -U -0.707385 -V -2.822713 -T 0.102506
n -t 3.400000 -s 0 -x 54.186416 -y 154.836155 -U 2.737344 -V 6.605259 -T 0.315483
n -t 3.400000 -s 1 -x 483.511773 -y 379.637075 -U -0.808012 -V -3.034257 -T 0.101203
n -t 3.500000 -s 0 -x 54.460150 -y 155.496681 -U 2.797473 -V 6.764358 -T 0.310941
n -t 3.500000 -s 1 -x 483.430972 -y 379.333649 -U -0.797138 -V -3.284657 -T 0.101578
n -t 3.600000 -s 0 -x 54.739897 -y 156.173117 -U 2.879230 -V 6.925319 -T 0.305673
n -t 3.600000 -s 1 -x 483.351258 -y 379.005183 -U -0.907358 -V -3.432084 -T 0.100575
n -t 3.700000 -s 0 -x 55.027820 -y 156.865649 -U 2.946527 -V 7.048942 -T 0.302790
n -t 3.700000 -s 1 -x 483.260522 -y 378.661975 -U -0.902499 -V -3.608863 -T 0.100302
n -t 3.800000 -s 0 -x 55.322473 -y 157.570543 -U 3.028597 -V 7.253082 -T 0.296351
n -t 3.800000 -s 1 -x 483.170272 -y 378.301089 -U -0.982214 -V -3.732942 -T 0.102088
n -t 3.900000 -s 0 -x 55.625333 -y 158.295851 -U 3.100889 -V 7.417957 -T 0.291745
n -t 3.900000 -s 1 -x 483.072051 -y 377.927794 -U -1.006404 -V -3.922965 -T 0.101401
n -t 4.000000 -s 0 -x 55.935421 -y 159.037647 -U 3.161655 -V 7.544292 -T 0.289272
n -t 4.000000 -s 1 -x 482.971410 -y 377.535498 -U -1.111060 -V -4.143627 -T 0.100274
n -t 4.100000 -s 0 -x 56.251587 -y 159.792076 -U 3.223192 -V 7.713665 -T 0.284939
n -t 4.100000 -s 1 -x 482.860304 -y 377.121135 -U -1.098879 -V -4.394697 -T 0.100379
n -t 4.200000 -s 0 -x 56.573906 -y 160.563443 -U 3.319258 -V 7.944471 -T 0.279006
n -t 4.200000 -s 1 -x 482.750416 -y 376.681666 -U -1.203884 -V -4.615578 -T 0.100023
n -t 4.300000 -s 0 -x 56.905832 -y 161.357890 -U 3.384478 -V 8.123134 -T 0.276015
n -t 4.300000 -s 1 -x 482.630028 -y 376.220108 -U -1.186981 -V -4.846770 -T 0.101120
n -t 4.400000 -s 0 -x 57.244280 -y 162.170203 -U 3.493792 -V 8.348408 -T 0.270686
n -t 4.400000 -s 1 -x 482.511330 -y 375.735431 -U -1.314474 -V -4.958736 -T 0.099911
n -t 4.500000 -s 0 -x 57.593659 -y 163.005044 -U 3.557512 -V 8.462654 -T 0.268823
n -t 4.500000 -s 1 -x 482.380000 -y 375.240000 -U -1.396058 -V -5.185357 -T 0.100282
n -t 4.600000 -s 0 -x 57.949410 -y 163.851310 -U 3.624391 -V 8.673165 -T 0.265035
n -t 4.600000 -s 1 -x 482.240394 -y 374.721464 -U -1.403015 -V -5.411067 -T 0.100066
n -t 4.600000 -s 2 -x 484.030000 -y 381.640000 -U 0.000000 -V 0.000000 -T 0.000000
n -t 4.700000 -s 0 -x 58.311849 -y 164.718626 -U 3.720468 -V 8.882287 -T 0.260223
n -t 4.700000 -s 1 -x 482.100093 -y 374.180358 -U -1.393030 -V -5.671425 -T 0.100567
n -t 4.700000 -s 2 -x 484.030000 -y 381.640000 -U -0.111803 -V -0.223607 -T 0.089443
n -t 4.800000 -s 0 -x 58.683896 -y 165.606855 -U 3.799315 -V 9.120285 -T 0.256916
n -t 4.800000 -s 1 -x 481.960790 -y 373.613215 -U -1.495383 -V -5.882919 -T 0.100837
n -t 4.800000 -s 2 -x 484.020000 -y 381.620000 -U -0.100019 -V -0.500096 -T 0.099981
n -t 4.900000 -s 0 -x 59.063828 -y 166.518883 -U 3.896452 -V 9.328974 -T 0.253095
n -t 4.900000 -s 1 -x 481.811251 -y 373.024923 -U -1.607243 -V -6.029458 -T 0.100328
n -t 4.900000 -s 2 -x 484.010000 -y 381.570000 -U -0.184327 -V -0.737308 -T 0.108503
n -t 5.000000 -s 0 -x 59.453473 -y 167.451781 -U 3.984464 -V 9.508951 -T 0.250103
n -t 5.000000 -s 1 -x 481.650527 -y 372.421977 -U -1.592848 -V -6.270864 -T 0.100780
n -t 5.000000 -s 2 -x 483.991567 -y 381.496269 -U -0.214240 -V -0.956296 -T 0.100669
n -t 5.000000 -s 3 -x 401.810000 -y 409.820000 -U 0.000000 -V 0.000000 -T 0.000000
n -t 5.100000 -s 0 -x 59.851919 -y 168.402676 -U 4.070075 -V 9.679075 -T 0.247681
n -t 5.100000 -s 1 -x 481.491242 -y 371.794891 -U -1.706676 -V -6.427267 -T 0.100337
n -t 5.100000 -s 2 -x 483.970143 -y 381.400640 -U -0.295740 -V -1.183612 -T 0.101925
n -t 5.100000 -s 3 -x 401.810000 -y 409.820000 -U 0.000000 -V -0.250000 -T 0.120000
n -t 5.200000 -s 0 -x 60.258927 -y 169.370583 -U 4.133466 -V 9.891049 -T 0.244607
n -t 5.200000 -s 1 -x 481.320575 -y 371.152164 -U -1.703797 -V -6.614074 -T 0.100114
n -t 5.200000 -s 2 -x 483.940569 -y 381.282278 -U -0.397605 -V -1.394421 -T 0.102034
n -t 5.200000 -s 3 -x 401.810000 -y 409.795000 -U -0.194946 -V -0.438630 -T 0.102592
n -t 5.300000 -s 0 -x 60.672273 -y 170.359688 -U 4.218670 -V 10.115554 -T 0.241244
n -t 5.300000 -s 1 -x 481.150195 -y 370.490757 -U -1.696172 -V -6.884119 -T 0.100341
n -t 5.300000 -s 2 -x 483.900809 -y 381.142836 -U -0.408399 -V -1.629604 -T 0.099924
n -t 5.300000 -s 3 -x 401.790505 -y 409.751137 -U -0.196652 -V -0.682223 -T 0.104272
n -t 5.400000 -s 0 -x 61.094140 -y 171.371244 -U 4.332826 -V 10.284562 -T 0.239073
n -t 5.400000 -s 1 -x 480.980578 -y 369.802345 -U -1.810291 -V -7.041005 -T 0.099751
n -t 5.400000 -s 2 -x 483.860000 -y 380.980000 -U -0.495141 -V -1.782508 -T 0.100981
n -t 5.400000 -s 3 -x 401.770840 -y 409.682915 -U -0.207913 -V -0.926969 -T 0.100235
n -t 5.500000 -s 0 -x 61.527423 -y 172.399700 -U 4.357966 -V 10.425840 -T 0.236940
n -t 5.500000 -s 1 -x 480.800000 -y 369.100000 -U -1.898348 -V -7.193739 -T 0.100087
n -t 5.500000 -s 2 -x 483.810486 -y 380.801749 -U -0.500076 -V -1.998380 -T 0.100956
n -t 5.500000 -s 3 -x 401.750049 -y 409.590218 -U -0.372950 -V -1.119513 -T 0.107384
n -t 5.600000 -s 0 -x 61.963219 -y 173.442284 -U 4.464077 -V 10.609058 -T 0.234490
n -t 5.600000 -s 1 -x 480.610165 -y 368.380626 -U -1.882627 -V -7.332163 -T 0.101011
n -t 5.600000 -s 2 -x 483.760478 -y 380.601911 -U -0.602141 -V -2.209418 -T 0.100439
n -t 5.600000 -s 3 -x 401.712754 -y 409.478267 -U -0.416533 -V -1.347071 -T 0.102642
n -t 5.700000 -s 0 -x 62.409627 -y 174.503190 -U 4.525381 -V 10.800233 -T 0.232107
n -t 5.700000 -s 1 -x 480.421903 -y 367.647410 -U -1.900992 -V -7.502921 -T 0.100949
n -t 5.700000 -s 2 -x 483.700264 -y 380.380969 -U -0.593061 -V -2.469793 -T 0.101616
n -t 5.700000 -s 3 -x 401.671101 -y 409.343559 -U -0.394813 -V -1.571153 -T 0.104102
n -t 5.800000 -s 0 -x 62.862165 -y 175.583213 -U 4.587726 -V 10.958429 -T 0.230579
n -t 5.800000 -s 1 -x 480.231803 -y 366.897118 -U -2.009848 -V -7.640060 -T 0.100407
n -t 5.800000 -s 2 -x 483.640958 -y 380.133990 -U -0.691958 -V -2.671852 -T 0.102547
n -t 5.800000 -s 3 -x 401.631619 -y 409.186444 -U -0.496294 -V -1.792566 -T 0.104010
n -t 5.900000 -s 0 -x 63.320938 -y 176.679056 -U 4.624325 -V 11.094865 -T 0.229020
n -t 5.900000 -s 1 -x 480.030819 -y 366.133112 -U -2.004583 -V -7.817068 -T 0.100180
n -t 5.900000 -s 2 -x 483.571762 -y 379.866805 -U -0.705033 -V -2.915978 -T 0.101786
n -t 5.900000 -s 3 -x 401.581990 -y 409.007188 -U -0.599082 -V -2.002299 -T 0.103475
n -t 6.000000 -s 0 -x 63.783370 -y 177.788542 -U 4.701426 -V 11.290239 -T 0.226874
n -t 6.000000 -s 1 -x 479.830360 -y 365.351405 -U -2.097119 -V -7.989349 -T 0.100309
n -t 6.000000 -s 2 -x 483.501259 -y 379.575207 -U -0.906605 -V -3.131400 -T 0.100660
n -t 6.000000 -s 3 -x 401.522082 -y 408.806958 -U -0.715714 -V -2.154218 -T 0.100713
n -t 6.000000 -s 4 -x 131.000000 -y 506.220000 -U 0.000000 -V 0.000000 -T 0.000000
n -t 6.100000 -s 0 -x 64.253513 -y 178.917566 -U 4.779084 -V 11.420366 -T 0.225250
n -t 6.100000 -s 1 -x 479.620648 -y 364.552470 -U -2.086593 -V -8.147038 -T 0.100953
n -t 6.100000 -s 2 -x 483.410598 -y 379.262067 -U -0.802695 -V -3.406711 -T 0.100410
n -t 6.100000 -s 3 -x 401.450510 -y 408.591536 -U -0.694966 -V -2.380635 -T 0.101459
n -t 6.100000 -s 4 -x 131.000000 -y 506.220000 -U 0.223607 -V -0.111803 -T 0.089443
n -t 6.200000 -s 0 -x 64.731421 -y 180.059603 -U 4.881462 -V 11.615995 -T 0.223003
n -t 6.200000 -s 1 -x 479.411989 -y 363.737766 -U -2.114565 -V -8.356615 -T 0.100252
n -t 6.200000 -s 2 -x 483.330329 -y 378.921396 -U -0.984393 -V -3.545895 -T 0.101920
n -t 6.200000 -s 3 -x 401.381014 -y 408.353472 -U -0.700053 -V -2.597311 -T 0.101440
n -t 6.200000 -s 4 -x 131.020000 -y 506.210000 -U 0.392000 -V -0.294000 -T 0.102041
n -t 6.300000 -s 0 -x 65.219567 -y 181.221202 -U 4.939478 -V 11.862717 -T 0.220759
n -t 6.300000 -s 1 -x 479.200533 -y 362.902105 -U -2.204874 -V -8.519303 -T 0.100020
n -t 6.300000 -s 2 -x 483.231890 -y 378.566806 -U -0.916884 -V -3.759817 -T 0.100219
n -t 6.300000 -s 3 -x 401.311008 -y 408.093741 -U -0.805895 -V -2.723258 -T 0.100520
n -t 6.300000 -s 4 -x 131.059200 -y 506.180600 -U 0.598773 -V -0.399839 -T 0.101541
n -t 6.400000 -s 0 -x 65.713515 -y 182.407474 -U 5.048835 -V 12.012084 -T 0.219156
n -t 6.400000 -s 1 -x 478.980045 -y 362.050174 -U -2.194162 -V -8.676874 -T 0.100287
n -t 6.400000 -s 2 -x 483.140201 -y 378.190825 -U -0.993405 -V -3.874680 -T 0.100866
n -t 6.400000 -s 3 -x 401.230419 -y 407.821416 -U -0.890726 -V -2.969277 -T 0.101511
n -t 6.400000 -s 4 -x 131.119077 -y 506.140616 -U 0.760342 -V -0.569544 -T 0.106429
n -t 6.500000 -s 0 -x 66.218399 -y 183.608682 -U 5.057046 -V 12.171224 -T 0.217835
n -t 6.500000 -s 1 -x 478.760629 -y 361.182487 -U -2.300915 -V -8.804305 -T 0.100234
n -t 6.500000 -s 2 -x 483.040861 -y 377.803357 -U -1.113074 -V -4.049823 -T 0.099599
n -t 6.500000 -s 3 -x 401.141346 -y 407.524488 -U -0.905062 -V -3.215037 -T 0.100928
n -t 6.500000 -s 4 -x 131.195112 -y 506.083662 -U 0.954983 -V -0.640709 -T 0.099361
n -t 6.600000 -s 0 -x 66.724103 -y 184.825805 -U 5.172961 -V 12.350408 -T 0.215717
n -t 6.600000 -s 1 -x 478.530537 -y 360.302056 -U -2.292871 -V -8.971641 -T 0.100545
n -t 6.600000 -s 2 -x 482.930000 -y 377.400000 -U -1.090466 -V -4.262732 -T 0.100874
n -t 6.600000 -s 3 -x 401.050840 -y 407.202984 -U -1.078510 -V -3.434649 -T 0.102772
n -t 6.600000 -s 4 -x 131.290000 -y 506.020000 -U 1.156550 -V -0.771033 -T 0.103757
n -t 6.700000 -s 0 -x 67.241399 -y 186.060846 -U 5.259145 -V 12.531141 -T 0.214598
n -t 6.700000 -s 1 -x 478.301250 -y 359.404892 -U -2.396782 -V -9.089303 -T 0.100656
n -t 6.700000 -s 2 -x 482.820953 -y 376.973727 -U -1.106930 -V -4.526622 -T 0.100235
n -t 6.700000 -s 3 -x 400.942989 -y 406.859519 -U -1.029947 -V -3.595387 -T 0.099995
n -t 6.700000 -s 4 -x 131.405655 -y 505.942897 -U 1.316018 -V -0.909998 -T 0.102084
n -t 6.800000 -s 0 -x 67.767314 -y 187.313960 -U 5.321969 -V 12.667448 -T 0.212832
n -t 6.800000 -s 1 -x 478.061572 -y 358.495962 -U -2.409138 -V -9.334112 -T 0.100273
n -t 6.800000 -s 2 -x 482.710260 -y 376.521065 -U -1.189807 -V -4.660521 -T 0.101076
n -t 6.800000 -s 3 -x 400.840000 -y 406.500000 -U -1.098329 -V -3.794229 -T 0.100152
n -t 6.800000 -s 4 -x 131.537257 -y 505.851897 -U 1.468183 -V -1.075564 -T 0.104036
n -t 6.900000 -s 0 -x 68.299511 -y 188.580704 -U 5.335894 -V 12.835039 -T 0.211865
n -t 6.900000 -s 1 -x 477.820658 -y 357.562551 -U -2.410304 -V -9.540232 -T 0.099846
n -t 6.900000 -s 2 -x 482.591280 -y 376.055012 -U -1.290679 -V -4.768411 -T 0.101714
n -t 6.900000 -s 3 -x 400.730167 -y 406.120577 -U -1.192438 -V -3.974996 -T 0.100774
n -t 6.900000 -s 4 -x 131.684075 -y 505.744340 -U 1.622143 -V -1.117834 -T 0.102287
n -t 7.000000 -s 0 -x 68.833100 -y 189.864208 -U 5.466825 -V 13.040453 -T 0.209793
n -t 7.000000 -s 1 -x 477.580000 -y 356.610000 -U -2.484217 -V -9.738130 -T 0.100635
n -t 7.000000 -s 2 -x 482.462212 -y 375.578171 -U -1.211221 -V -5.036402 -T 0.100900
n -t 7.000000 -s 3 -x 400.610923 -y 405.723078 -U -1.195438 -V -4.182514 -T 0.101154
n -t 7.000000 -s 4 -x 131.846289 -y 505.632557 -U 1.748606 -V -1.233684 -T 0.099342
n -t 7.000000 -s 5 -x 208.380000 -y 354.610000 -U 0.000000 -V 0.000000 -T 0.000000
n -t 7.100000 -s 0 -x 69.379783 -y 191.168254 -U 5.517145 -V 13.247023 -T 0.208481
n -t 7.100000 -s 1 -x 477.331578 -y 355.636187 -U -2.595574 -V -9.884907 -T 0.100779
n -t 7.100000 -s 2 -x 482.341090 -y 375.074531 -U -1.397455 -V -5.195336 -T 0.100962
n -t 7.100000 -s 3 -x 400.491379 -y 405.304826 -U -1.304422 -V -4.317243 -T 0.100718
n -t 7.100000 -s 4 -x 132.020000 -y 505.510000 -U 1.933387 -V -1.353371 -T 0.103445
n -t 7.100000 -s 5 -x 208.380000 -y 354.610000 -U -0.116276 -V -0.232551 -T 0.086003
n -t 7.200000 -s 0 -x 69.931497 -y 192.492956 -U 5.662426 -V 13.457226 -T 0.206361
n -t 7.200000 -s 1 -x 477.072021 -y 354.647696 -U -2.608027 -V -10.129649 -T 0.100467
n -t 7.200000 -s 2 -x 482.201344 -y 374.554998 -U -1.415093 -V -5.356222 -T 0.099883
n -t 7.200000 -s 3 -x 400.360937 -y 404.873102 -U -1.292350 -V -4.570813 -T 0.101317
n -t 7.200000 -s 4 -x 132.213339 -y 505.374663 -U 2.120725 -V -1.415990 -T 0.102164
n -t 7.200000 -s 5 -x 208.370000 -y 354.590000 -U -0.100019 -V -0.500096 -T 0.099981
n -t 7.300000 -s 0 -x 70.497740 -y 193.838679 -U 5.720964 -V 13.671246 -T 0.204906
n -t 7.300000 -s 1 -x 476.811218 -y 353.634731 -U -2.595461 -V -10.380442 -T 0.100644
n -t 7.300000 -s 2 -x 482.060000 -y 374.020000 -U -1.401138 -V -5.504472 -T 0.099919
n -t 7.300000 -s 3 -x 400.231702 -y 404.416021 -U -1.393913 -V -4.780942 -T 0.101658
n -t 7.300000 -s 4 -x 132.425411 -y 505.233064 -U 2.282702 -V -1.586718 -T 0.102768
n -t 7.300000 -s 5 -x 208.360000 -y 354.540000 -U -0.203294 -V -0.711528 -T 0.098380
n -t 7.400000 -s 0 -x 71.069836 -y 195.205803 -U 5.613665 -V 13.423459 -T 0.206668
n -t 7.400000 -s 1 -x 476.551672 -y 352.596687 -U -2.815215 -V -10.561225 -T 0.100053
n -t 7.400000 -s 2 -x 481.920000 -y 373.470000 -U -1.479762 -V -5.721748 -T 0.101368
n -t 7.400000 -s 3 -x 400.092311 -y 403.937926 -U -1.496479 -V -4.990456 -T 0.101780
n -t 7.400000 -s 4 -x 132.653681 -y 505.074392 -U 2.423981 -V -1.716164 -T 0.101617
n -t 7.400000 -s 5 -x 208.340000 -y 354.470000 -U -0.300416 -V -0.901249 -T 0.099861
n -t 7.500000 -s 0 -x 71.631203 -y 196.548149 -U 5.491276 -V 13.106105 -T 0.209204
n -t 7.500000 -s 1 -x 476.270151 -y 351.540565 -U -2.689808 -V -10.758858 -T 0.100435
n -t 7.500000 -s 2 -x 481.772024 -y 372.897825 -U -1.505816 -V -5.921539 -T 0.100958
n -t 7.500000 -s 3 -x 399.942663 -y 403.438881 -U -1.524167 -V -5.180436 -T 0.100162
n -t 7.500000 -s 4 -x 132.896079 -y 504.902776 -U 2.597844 -V -1.799113 -T 0.101592
n -t 7.500000 -s 5 -x 208.310000 -y 354.380000 -U -0.293468 -V -1.173872 -T 0.102226
n -t 7.600000 -s 0 -x 72.180330 -y 197.858760 -U 5.308933 -V 12.694598 -T 0.212787
n -t 7.600000 -s 1 -x 476.001170 -y 350.464679 -U -2.798732 -V -10.896311 -T 0.100463
n -t 7.600000 -s 2 -x 481.621442 -y 372.305671 -U -1.502423 -V -6.107931 -T 0.100799
n -t 7.600000 -s 3 -x 399.790246 -y 402.920837 -U -1.590879 -V -5.369274 -T 0.100728
n -t 7.600000 -s 4 -x 133.155864 -y 504.722864 -U 2.715333 -V -1.910332 -T 0.100959
n -t 7.600000 -s 5 -x 208.280653 -y 354.262613 -U -0.402985 -V -1.413684 -T 0.100880
n -t 7.700000 -s 0 -x 72.711224 -y 199.128220 -U 5.118056 -V 12.286643 -T 0.216640
n -t 7.700000 -s 1 -x 475.721297 -y 349.375048 -U -2.906724 -V -11.126588 -T 0.100215
n -t 7.700000 -s 2 -x 481.471200 -y 371.694878 -U -1.689723 -V -6.266174 -T 0.101318
n -t 7.700000 -s 3 -x 399.631158 -y 402.383910 -U -1.609132 -V -5.530669 -T 0.100152
n -t 7.700000 -s 4 -x 133.427397 -y 504.531831 -U 2.889310 -V -1.992984 -T 0.101271
n -t 7.700000 -s 5 -x 208.240355 -y 354.121244 -U -0.500793 -V -1.603623 -T 0.100550
n -t 7.800000 -s 0 -x 73.223029 -y 200.356884 -U 4.961588 -V 11.864327 -T 0.221093
n -t 7.800000 -s 1 -x 475.430624 -y 348.262389 -U -2.893592 -V -11.274605 -T 0.100437
n -t 7.800000 -s 2 -x 481.302228 -y 371.068261 -U -1.626521 -V -6.499571 -T 0.099739
n -t 7.800000 -s 3 -x 399.470245 -y 401.830843 -U -1.700484 -V -5.701829 -T 0.100116
n -t 7.800000 -s 4 -x 133.716328 -y 504.332533 -U 3.096208 -V -2.097879 -T 0.101308
n -t 7.800000 -s 5 -x 208.190275 -y 353.960882 -U -0.494115 -V -1.876020 -T 0.101748
n -t 7.900000 -s 0 -x 73.719188 -y 201.543317 -U 4.800288 -V 11.444009 -T 0.225156
n -t 7.900000 -s 1 -x 475.141265 -y 347.134928 -U -2.996054 -V -11.485668 -T 0.100554
n -t 7.900000 -s 2 -x 481.140000 -y 370.420000 -U -1.787655 -V -6.654051 -T 0.100691
n -t 7.900000 -s 3 -x 399.300197 -y 401.260660 -U -1.688977 -V -5.861515 -T 0.100769
n -t 7.900000 -s 4 -x 134.025949 -y 504.122745 -U 3.191999 -V -2.292606 -T 0.101520
n -t 7.900000 -s 5 -x 208.140864 -y 353.773280 -U -0.503393 -V -2.110804 -T 0.101042
n -t 8.000000 -s 0 -x 74.199217 -y 202.687717 -U 4.621021 -V 11.031218 -T 0.229556
n -t 8.000000 -s 1 -x 474.841659 -y 345.986362 -U -3.005606 -V -11.720765 -T 0.100366
n -t 8.000000 -s 2 -x 480.961234 -y 369.754595 -U -1.706623 -V -6.922741 -T 0.100335
n -t 8.000000 -s 3 -x 399.131299 -y 400.674509 -U -1.788387 -V -6.061689 -T 0.101376
n -t 8.000000 -s 4 -x 134.345149 -y 503.893484 -U 3.338538 -V -2.327888 -T 0.100299
n -t 8.000000 -s 5 -x 208.090525 -y 353.562200 -U -0.691664 -V -2.277279 -T 0.101964
n -t 8.100000 -s 0 -x 74.661319 -y 203.790839 -U 4.453557 -V 10.613479 -T 0.235470
n -t 8.100000 -s 1 -x 474.541099 -y 344.814285 -U -3.114889 -V -11.857701 -T 0.099875
n -t 8.100000 -s 2 -x 480.790572 -y 369.062321 -U -1.788885 -V -7.056790 -T 0.100941
n -t 8.100000 -s 3 -x 398.952460 -y 400.068340 -U -1.801471 -V -6.203733 -T 0.101284
n -t 8.100000 -s 4 -x 134.679003 -y 503.660695 -U 3.569356 -V -2.379873 -T 0.101138
n -t 8.100000 -s 5 -x 208.021358 -y 353.334472 -U -0.699306 -V -2.493807 -T 0.102041
n -t 8.200000 -s 0 -x 75.106675 -y 204.852187 -U 4.251144 -V 10.210356 -T 0.240718
n -t 8.200000 -s 1 -x 474.230000 -y 343.630000 -U -3.099802 -V -12.099228 -T 0.100006
n -t 8.200000 -s 2 -x 480.611684 -y 368.356642 -U -1.902810 -V -7.213246 -T 0.100737
n -t 8.200000 -s 3 -x 398.772313 -y 399.447966 -U -1.912028 -V -6.442247 -T 0.100581
n -t 8.200000 -s 4 -x 135.035938 -y 503.422708 -U 3.723456 -V -2.615029 -T 0.100461
n -t 8.200000 -s 5 -x 207.951428 -y 353.085091 -U -0.716254 -V -2.758529 -T 0.099724
n -t 8.300000 -s 0 -x 75.531789 -y 205.873223 -U 4.084982 -V 9.792090 -T 0.246809
n -t 8.300000 -s 1 -x 473.920020 -y 342.420077 -U -3.085058 -V -12.340211 -T 0.100491
n -t 8.300000 -s 2 -x 480.421403 -y 367.635317 -U -1.910291 -V -7.438628 -T 0.100196
n -t 8.300000 -s 3 -x 398.581110 -y 398.803742 -U -1.993609 -V -6.678804 -T 0.100878
n -t 8.300000 -s 4 -x 135.408284 -y 503.161205 -U 3.856002 -V -2.669709 -T 0.101586
n -t 8.300000 -s 5 -x 207.880000 -y 352.810000 -U -0.797787 -V -2.891978 -T 0.100277
n -t 8.400000 -s 0 -x 75.940287 -y 206.852432 -U 3.918573 -V 9.373921 -T 0.252570
n -t 8.400000 -s 1 -x 473.611514 -y 341.186056 -U -3.294550 -V -12.482549 -T 0.100625
n -t 8.400000 -s 2 -x 480.230374 -y 366.891454 -U -2.002776 -V -7.610899 -T 0.100048
n -t 8.400000 -s 3 -x 398.381750 -y 398.135861 -U -2.014904 -V -6.849800 -T 0.100129
n -t 8.400000 -s 4 -x 135.793884 -y 502.894234 -U 3.998068 -V -2.798187 -T 0.101578
n -t 8.400000 -s 5 -x 207.800221 -y 352.520802 -U -0.880936 -V -3.034724 -T 0.102415
n -t 8.500000 -s 0 -x 76.332144 -y 207.789824 -U 3.757354 -V 8.953569 -T 0.260251
n -t 8.500000 -s 1 -x 473.282059 -y 339.937801 -U -3.206507 -V -12.722135 -T 0.100439
n -t 8.500000 -s 2 -x 480.030096 -y 366.130365 -U -1.985497 -V -7.842570 -T 0.100779
n -t 8.500000 -s 3 -x 398.180259 -y 397.450881 -U -1.995678 -V -7.084269 -T 0.100346
n -t 8.500000 -s 4 -x 136.193691 -y 502.614416 -U 4.139447 -V -2.927435 -T 0.100571
n -t 8.500000 -s 5 -x 207.712128 -y 352.217330 -U -0.895764 -V -3.279879 -T 0.102848
n -t 8.600000 -s 0 -x 76.707880 -y 208.685181 -U 3.593696 -V 8.534222 -T 0.267724
n -t 8.600000 -s 1 -x 472.961408 -y 338.665588 -U -3.396715 -V -12.889966 -T 0.100511
n -t 8.600000 -s 2 -x 479.831546 -y 365.346108 -U -2.096670 -V -7.989466 -T 0.100896
n -t 8.600000 -s 3 -x 397.980691 -y 396.742454 -U -2.188186 -V -7.163235 -T 0.100856
n -t 8.600000 -s 4 -x 136.607636 -y 502.321672 -U 4.386990 -V -2.991725 -T 0.100836
n -t 8.600000 -s 5 -x 207.622551 -y 351.889342 -U -0.906578 -V -3.421946 -T 0.102089
n -t 8.700000 -s 0 -x 77.067249 -y 209.538603 -U 3.402814 -V 8.126313 -T 0.277050
n -t 8.700000 -s 1 -x 472.621737 -y 337.376591 -U -3.320444 -V -13.178116 -T 0.099907
n -t 8.700000 -s 2 -x 479.621879 -y 364.547161 -U -2.108294 -V -8.131119 -T 0.100498
n -t 8.700000 -s 3 -x 397.761873 -y 396.026131 -U -2.117008 -V -7.455252 -T 0.100081
n -t 8.700000 -s 4 -x 137.046335 -y 502.022500 -U 4.512940 -V -3.108661 -T 0.100525
n -t 8.700000 -s 5 -x 207.531894 -y 351.547147 -U -1.005500 -V -3.623061 -T 0.101336
n -t 8.800000 -s 0 -x 77.407531 -y 210.351234 -U 3.221782 -V 7.714255 -T 0.286323
n -t 8.800000 -s 1 -x 472.290000 -y 336.060000 -U -3.499283 -V -13.297275 -T 0.100020
n -t 8.800000 -s 2 -x 479.411050 -y 363.734049 -U -2.102312 -V -8.308140 -T 0.100389
n -t 8.800000 -s 3 -x 397.550172 -y 395.280606 -U -2.292429 -V -7.674951 -T 0.100405
n -t 8.800000 -s 4 -x 137.497629 -y 501.711634 -U 4.613563 -V -3.209274 -T 0.100220
n -t 8.800000 -s 5 -x 207.431344 -y 351.184841 -U -1.003348 -V -3.810104 -T 0.101005
n -t 8.900000 -s 0 -x 77.729709 -y 211.122659 -U 3.063032 -V 7.292869 -T 0.297186
n -t 8.900000 -s 1 -x 471.940072 -y 334.730273 -U -3.503442 -V -13.513234 -T 0.099922
n -t 8.900000 -s 2 -x 479.200819 -y 362.903235 -U -2.204813 -V -8.519319 -T 0.100153
n -t 8.900000 -s 3 -x 397.320929 -y 394.513111 -U -2.308018 -V -7.826791 -T 0.100055
n -t 8.900000 -s 4 -x 137.958985 -y 501.390706 -U 4.795886 -V -3.297254 -T 0.100297
n -t 8.900000 -s 5 -x 207.331009 -y 350.803831 -U -1.092036 -V -3.972639 -T 0.101653
n -t 9.000000 -s 0 -x 78.036012 -y 211.851946 -U 2.861778 -V 6.889254 -T 0.308895
n -t 9.000000 -s 1 -x 471.590000 -y 333.380000 -U -3.488464 -V -13.754516 -T 0.100331
n -t 9.000000 -s 2 -x 478.980337 -y 362.051303 -U -2.194225 -V -8.676859 -T 0.100417
n -t 9.000000 -s 3 -x 397.090127 -y 393.730431 -U -2.374973 -V -8.015554 -T 0.101107
n -t 9.000000 -s 4 -x 138.438573 -y 501.060981 -U 4.896708 -V -3.397625 -T 0.100359
n -t 9.000000 -s 5 -x 207.221805 -y 350.406567 -U -1.191647 -V -4.173198 -T 0.102216
n -t 9.000000 -s 6 -x 360.190000 -y 433.340000 -U 0.000000 -V 0.000000 -T 0.000000
n -t 9.100000 -s 0 -x 78.322190 -y 212.540872 -U 2.700148 -V 6.469104 -T 0.321394
n -t 9.100000 -s 1 -x 471.241154 -y 332.004548 -U -3.597611 -V -13.891713 -T 0.100387
n -t 9.100000 -s 2 -x 478.760915 -y 361.183617 -U -2.308411 -V -8.833354 -T 0.100032
n -t 9.100000 -s 3 -x 396.852630 -y 392.928876 -U -2.322806 -V -8.176464 -T 0.100150
n -t 9.100000 -s 4 -x 138.928244 -y 500.721218 -U 4.997365 -V -3.498048 -T 0.100404
n -t 9.100000 -s 5 -x 207.102640 -y 349.989247 -U -1.204765 -V -4.314967 -T 0.101796
n -t 9.100000 -s 6 -x 360.190000 -y 433.340000 -U 0.072697 -V 0.239197 -T 12.792810
n -t 9.200000 -s 0 -x 78.592205 -y 213.187782 -U 2.540406 -V 6.048135 -T 0.337661
n -t 9.200000 -s 1 -x 470.881393 -y 330.615377 -U -3.614454 -V -14.155841 -T 0.099985
n -t 9.200000 -s 2 -x 478.530074 -y 360.300282 -U -2.288711 -V -9.055242 -T 0.100525
n -t 9.200000 -s 3 -x 396.620349 -y 392.111230 -U -2.491636 -V -8.272929 -T 0.100476
n -t 9.200000 -s 4 -x 139.427981 -y 500.371413 -U 5.130614 -V -3.621491 -T 0.099797
n -t 9.200000 -s 5 -x 206.982164 -y 349.557750 -U -1.211915 -V -4.541064 -T 0.100802
n -t 9.200000 -s 6 -x 360.197270 -y 433.363920 -U 0.149953 -V 0.466491 -T 6.486897
n -t 9.300000 -s 0 -x 78.846245 -y 213.792596 -U 2.353614 -V 5.638493 -T 0.354244
n -t 9.300000 -s 1 -x 470.520000 -y 329.200000 -U -3.690605 -V -14.363437 -T 0.100255
n -t 9.300000 -s 2 -x 478.301203 -y 359.394758 -U -2.398593 -V -9.295523 -T 0.100560
n -t 9.300000 -s 3 -x 396.371186 -y 391.283937 -U -2.480495 -V -8.432748 -T 0.101264
n -t 9.300000 -s 4 -x 139.940000 -y 500.010000 -U 5.272330 -V -3.680684 -T 0.100525
n -t 9.300000 -s 5 -x 206.860973 -y 349.103644 -U -1.291260 -V -4.768254 -T 0.101430
n -t 9.300000 -s 6 -x 360.212265 -y 433.410569 -U 0.246042 -V 0.708494 -T 4.177074
n -t 9.400000 -s 0 -x 79.081607 -y 214.356445 -U 2.177479 -V 5.224384 -T 0.375844
n -t 9.400000 -s 1 -x 470.150939 -y 327.763656 -U -3.793232 -V -14.574464 -T 0.100426
n -t 9.400000 -s 2 -x 478.061343 -y 358.465205 -U -2.506510 -V -9.525750 -T 0.100276
n -t 9.400000 -s 3 -x 396.123136 -y 390.440662 -U -2.501451 -V -8.603740 -T 0.101196
n -t 9.400000 -s 4 -x 140.467233 -y 499.641932 -U 5.495746 -V -3.797259 -T 0.100581
n -t 9.400000 -s 5 -x 206.731846 -y 348.626819 -U -1.402895 -V -4.913653 -T 0.101110
n -t 9.400000 -s 6 -x 360.236869 -y 433.481418 -U 0.360024 -V 0.932943 -T 3.064048
n -t 9.500000 -s 0 -x 79.299355 -y 214.878883 -U 2.008077 -V 4.818301 -T 0.398712
n -t 9.500000 -s 1 -x 469.771616 -y 326.306210 -U -3.809309 -V -14.735588 -T 0.100180
n -t 9.500000 -s 2 -x 477.810692 -y 357.512630 -U -2.493397 -V -9.673834 -T 0.100542
n -t 9.500000 -s 3 -x 395.872991 -y 389.580288 -U -2.603509 -V -8.813503 -T 0.101014
n -t 9.500000 -s 4 -x 141.016808 -y 499.262206 -U 5.702773 -V -3.902112 -T 0.100511
n -t 9.500000 -s 5 -x 206.591557 -y 348.135453 -U -1.398257 -V -5.091491 -T 0.101238
n -t 9.500000 -s 6 -x 360.272872 -y 433.574712 -U 0.479791 -V 1.110811 -T 2.453421
n -t 9.600000 -s 0 -x 79.500162 -y 215.360713 -U 1.848168 -V 4.397406 -T 0.427363
n -t 9.600000 -s 1 -x 469.390685 -y 324.832651 -U -3.796728 -V -14.986543 -T 0.100267
n -t 9.600000 -s 2 -x 477.561352 -y 356.545247 -U -2.502514 -V -9.908876 -T 0.100440
n -t 9.600000 -s 3 -x 395.612640 -y 388.698938 -U -2.617734 -V -9.059380 -T 0.100331
n -t 9.600000 -s 4 -x 141.587085 -y 498.871995 -U 5.811956 -V -4.008088 -T 0.100296
n -t 9.600000 -s 5 -x 206.451731 -y 347.626304 -U -1.505457 -V -5.321137 -T 0.100788
n -t 9.600000 -s 6 -x 360.320851 -y 433.685794 -U 0.636771 -V 1.291558 -T 1.993101
n -t 9.700000 -s 0 -x 79.684979 -y 215.800454 -U 1.685056 -V 3.977812 -T 0.459938
n -t 9.700000 -s 1 -x 469.011013 -y 323.333997 -U -3.903438 -V -15.114075 -T 0.100171
n -t 9.700000 -s 2 -x 477.311101 -y 355.554359 -U -2.597487 -V -10.091059 -T 0.100521
n -t 9.700000 -s 3 -x 395.350867 -y 387.793000 -U -2.694803 -V -9.182752 -T 0.100514
n -t 9.700000 -s 4 -x 142.168281 -y 498.471186 -U 5.980476 -V -4.186156 -T 0.100614
n -t 9.700000 -s 5 -x 206.301186 -y 347.094191 -U -1.496077 -V -5.583024 -T 0.101055
n -t 9.700000 -s 6 -x 360.384528 -y 433.814949 -U 0.834398 -V 1.469653 -T 1.636475
n -t 9.800000 -s 0 -x 79.853485 -y 216.198235 -U 1.342680 -V 3.629616 -T 0.496407
n -t 9.800000 -s 1 -x 468.620669 -y 321.822589 -U -4.008970 -V -15.334623 -T 0.099943
n -t 9.800000 -s 2 -x 477.051352 -y 354.545254 -U -2.717220 -V -10.266505 -T 0.099864
n -t 9.800000 -s 3 -x 395.081386 -y 386.874724 -U -2.801873 -V -9.307411 -T 0.100428