n -t * -s 0  -x 100 -y 500 -Z 0 -z 20  -v circle -c black
n -t * -s 1  -x 301 -y 399 -Z 0 -z 20  -v circle -c black
n -t * -s 2  -x 501 -y 399 -Z 0 -z 20  -v circle -c black
n -t * -s 3  -x 801 -y 399 -Z 0 -z 20  -v circle -c black
n -t * -s 4  -x 1001 -y 399 -Z 0 -z 20  -v circle -c black
V -t * -v 1.0a5 -a 0
W -t * -x 1500 -y 600
A -t * -n 1 -p 0 -o 0x7fffffff -c 30 -a 1
A -t * -h 1 -m 1073741823 -s 0
n -t 0.000000 -s 0 -x 100.000000 -y 500.000000 -U 50.000000 -V 0.000000 -T 17.000000
+ -t 2.000000000 -s 0 -d -1 -p cbr -e 1000 -c 2 -a 0 -i 0 -k AGT 
- -t 2.000000000 -s 0 -d -1 -p cbr -e 1000 -c 2 -a 0 -i 0 -k AGT
h -t 2.000000000 -s 0 -d -1 -p cbr -e 1000 -c 2 -a 0 -i 0 -k AGT
+ -t 2.000000000 -s 0 -d -1 -p AODV -e 48 -c 2 -a 0 -i 0 -k RTR 
- -t 2.000000000 -s 0 -d -1 -p AODV -e 48 -c 2 -a 0 -i 0 -k RTR
h -t 2.000000000 -s 0 -d -1 -p AODV -e 48 -c 2 -a 0 -i 0 -k RTR
+ -t 2.000535000 -s 0 -d -1 -p AODV -e 106 -c 2 -a 0 -i 0 -k MAC 
- -t 2.000535000 -s 0 -d -1 -p AODV -e 106 -c 2 -a 0 -i 0 -k MAC
h -t 2.000535000 -s 0 -d -1 -p AODV -e 106 -c 2 -a 0 -i 0 -k MAC
r -t 2.001383476 -s 1 -d -1 -p AODV -e 48 -c 2 -a 0 -i 0 -k MAC
r -t 2.001408476 -s 1 -d -1 -p AODV -e 48 -c 2 -a 0 -i 0 -k RTR
+ -t 2.001550523 -s 1 -d -1 -p AODV -e 48 -c 2 -a 0 -i 0 -k RTR 
- -t 2.001550523 -s 1 -d -1 -p AODV -e 48 -c 2 -a 0 -i 0 -k RTR
h -t 2.001550523 -s 1 -d -1 -p AODV -e 48 -c 2 -a 0 -i 0 -k RTR
+ -t 2.001925523 -s 1 -d -1 -p AODV -e 106 -c 2 -a 0 -i 0 -k MAC 
- -t 2.001925523 -s 1 -d -1 -p AODV -e 106 -c 2 -a 0 -i 0 -k MAC
h -t 2.001925523 -s 1 -d -1 -p AODV -e 106 -c 2 -a 0 -i 0 -k MAC
r -t 2.002773999 -s 0 -d -1 -p AODV -e 48 -c 2 -a 0 -i 0 -k MAC
r -t 2.002774189 -s 2 -d -1 -p AODV -e 48 -c 2 -a 0 -i 0 -k MAC
r -t 2.002798999 -s 0 -d -1 -p AODV -e 48 -c 2 -a 0 -i 0 -k RTR
r -t 2.002799189 -s 2 -d -1 -p AODV -e 48 -c 2 -a 0 -i 0 -k RTR
+ -t 2.008000000 -s 0 -d -1 -p cbr -e 1000 -c 2 -a 0 -i 1 -k AGT 
- -t 2.008000000 -s 0 -d -1 -p cbr -e 1000 -c 2 -a 0 -i 1 -k AGT
h -t 2.008000000 -s 0 -d -1 -p cbr -e 1000 -c 2 -a 0 -i 1 -k AGT
+ -t 2.010790744 -s 2 -d -1 -p AODV -e 48 -c 2 -a 0 -i 0 -k RTR 
- -t 2.010790744 -s 2 -d -1 -p AODV -e 48 -c 2 -a 0 -i 0 -k RTR
h -t 2.010790744 -s 2 -d -1 -p AODV -e 48 -c 2 -a 0 -i 0 -k RTR
+ -t 2.011025744 -s 2 -d -1 -p AODV -e 106 -c 2 -a 0 -i 0 -k MAC 
- -t 2.011025744 -s 2 -d -1 -p AODV -e 106 -c 2 -a 0 -i 0 -k MAC
h -t 2.011025744 -s 2 -d -1 -p AODV -e 106 -c 2 -a 0 -i 0 -k MAC
r -t 2.011874411 -s 1 -d -1 -p AODV -e 48 -c 2 -a 0 -i 0 -k MAC
r -t 2.011899411 -s 1 -d -1 -p AODV -e 48 -c 2 -a 0 -i 0 -k RTR
+ -t 2.016000000 -s 0 -d -1 -p cbr -e 1000 -c 2 -a 0 -i 2 -k AGT 
- -t 2.016000000 -s 0 -d -1 -p cbr -e 1000 -c 2 -a 0 -i 2 -k AGT
h -t 2.016000000 -s 0 -d -1 -p cbr -e 1000 -c 2 -a 0 -i 2 -k AGT
+ -t 2.024000000 -s 0 -d -1 -p cbr -e 1000 -c 2 -a 0 -i 3 -k AGT 
- -t 2.024000000 -s 0 -d -1 -p cbr -e 1000 -c 2 -a 0 -i 3 -k AGT
h -t 2.024000000 -s 0 -d -1 -p cbr -e 1000 -c 2 -a 0 -i 3 -k AGT
+ -t 2.032000000 -s 0 -d -1 -p cbr -e 1000 -c 2 -a 0 -i 4 -k AGT 
- -t 2.032000000 -s 0 -d -1 -p cbr -e 1000 -c 2 -a 0 -i 4 -k AGT
h -t 2.032000000 -s 0 -d -1 -p cbr -e 1000 -c 2 -a 0 -i 4 -k AGT
+ -t 2.040000000 -s 0 -d -1 -p cbr -e 1000 -c 2 -a 0 -i 5 -k AGT 
- -t 2.040000000 -s 0 -d -1 -p cbr -e 1000 -c 2 -a 0 -i 5 -k AGT
h -t 2.040000000 -s 0 -d -1 -p cbr -e 1000 -c 2 -a 0 -i 5 -k AGT
+ -t 2.048000000 -s 0 -d -1 -p cbr -e 1000 -c 2 -a 0 -i 6 -k AGT 
- -t 2.048000000 -s 0 -d -1 -p cbr -e 1000 -c 2 -a 0 -i 6 -k AGT
h -t 2.048000000 -s 0 -d -1 -p cbr -e 1000 -c 2 -a 0 -i 6 -k AGT
+ -t 2.056000000 -s 0 -d -1 -p cbr -e 1000 -c 2 -a 0 -i 7 -k AGT 
- -t 2.056000000 -s 0 -d -1 -p cbr -e 1000 -c 2 -a 0 -i 7 -k AGT
h -t 2.056000000 -s 0 -d -1 -p cbr -e 1000 -c 2 -a 0 -i 7 -k AGT
+ -t 2.064000000 -s 0 -d -1 -p cbr -e 1000 -c 2 -a 0 -i 8 -k AGT 
- -t 2.064000000 -s 0 -d -1 -p cbr -e 1000 -c 2 -a 0 -i 8 -k AGT
h -t 2.064000000 -s 0 -d -1 -p cbr -e 1000 -c 2 -a 0 -i 8 -k AGT
+ -t 2.072000000 -s 0 -d -1 -p cbr -e 1000 -c 2 -a 0 -i 9 -k AGT 
- -t 2.072000000 -s 0 -d -1 -p cbr -e 1000 -c 2 -a 0 -i 9 -k AGT
h -t 2.072000000 -s 0 -d -1 -p cbr -e 1000 -c 2 -a 0 -i 9 -k AGT
+ -t 2.080000000 -s 0 -d -1 -p cbr -e 1000 -c 2 -a 0 -i 10 -k AGT 
- -t 2.080000000 -s 0 -d -1 -p cbr -e 1000 -c 2 -a 0 -i 10 -k AGT
h -t 2.080000000 -s 0 -d -1 -p cbr -e 1000 -c 2 -a 0 -i 10 -k AGT
+ -t 2.088000000 -s 0 -d -1 -p cbr -e 1000 -c 2 -a 0 -i 11 -k AGT 
- -t 2.088000000 -s 0 -d -1 -p cbr -e 1000 -c 2 -a 0 -i 11 -k AGT
h -t 2.088000000 -s 0 -d -1 -p cbr -e 1000 -c 2 -a 0 -i 11 -k AGT
+ -t 2.096000000 -s 0 -d -1 -p cbr -e 1000 -c 2 -a 0 -i 12 -k AGT 
- -t 2.096000000 -s 0 -d -1 -p cbr -e 1000 -c 2 -a 0 -i 12 -k AGT
h -t 2.096000000 -s 0 -d -1 -p cbr -e 1000 -c 2 -a 0 -i 12 -k AGT
+ -t 2.104000000 -s 0 -d -1 -p cbr -e 1000 -c 2 -a 0 -i 13 -k AGT 
- -t 2.104000000 -s 0 -d -1 -p cbr -e 1000 -c 2 -a 0 -i 13 -k AGT
h -t 2.104000000 -s 0 -d -1 -p cbr -e 1000 -c 2 -a 0 -i 13 -k AGT
+ -t 2.112000000 -s 0 -d -1 -p cbr -e 1000 -c 2 -a 0 -i 14 -k AGT 
- -t 2.112000000 -s 0 -d -1 -p cbr -e 1000 -c 2 -a 0 -i 14 -k AGT
h -t 2.112000000 -s 0 -d -1 -p cbr -e 1000 -c 2 -a 0 -i 14 -k AGT
+ -t 2.120000000 -s 0 -d -1 -p cbr -e 1000 -c 2 -a 0 -i 15 -k AGT 
- -t 2.120000000 -s 0 -d -1 -p cbr -e 1000 -c 2 -a 0 -i 15 -k AGT
h -t 2.120000000 -s 0 -d -1 -p cbr -e 1000 -c 2 -a 0 -i 15 -k AGT
+ -t 2.128000000 -s 0 -d -1 -p cbr -e 1000 -c 2 -a 0 -i 16 -k AGT 
- -t 2.128000000 -s 0 -d -1 -p cbr -e 1000 -c 2 -a 0 -i 16 -k AGT
h -t 2.128000000 -s 0 -d -1 -p cbr -e 1000 -c 2 -a 0 -i 16 -k AGT
+ -t 2.136000000 -s 0 -d -1 -p cbr -e 1000 -c 2 -a 0 -i 17 -k AGT 
- -t 2.136000000 -s 0 -d -1 -p cbr -e 1000 -c 2 -a 0 -i 17 -k AGT
h -t 2.136000000 -s 0 -d -1 -p cbr -e 1000 -c 2 -a 0 -i 17 -k AGT
+ -t 2.144000000 -s 0 -d -1 -p cbr -e 1000 -c 2 -a 0 -i 18 -k AGT 
- -t 2.144000000 -s 0 -d -1 -p cbr -e 1000 -c 2 -a 0 -i 18 -k AGT
h -t 2.144000000 -s 0 -d -1 -p cbr -e 1000 -c 2 -a 0 -i 18 -k AGT
+ -t 2.152000000 -s 0 -d -1 -p cbr -e 1000 -c 2 -a 0 -i 19 -k AGT 
- -t 2.152000000 -s 0 -d -1 -p cbr -e 1000 -c 2 -a 0 -i 19 -k AGT
h -t 2.152000000 -s 0 -d -1 -p cbr -e 1000 -c 2 -a 0 -i 19 -k AGT
+ -t 2.160000000 -s 0 -d -1 -p cbr -e 1000 -c 2 -a 0 -i 20 -k AGT 
- -t 2.160000000 -s 0 -d -1 -p cbr -e 1000 -c 2 -a 0 -i 20 -k AGT
h -t 2.160000000 -s 0 -d -1 -p cbr -e 1000 -c 2 -a 0 -i 20 -k AGT
+ -t 2.168000000 -s 0 -d -1 -p cbr -e 1000 -c 2 -a 0 -i 21 -k AGT 
- -t 2.168000000 -s 0 -d -1 -p cbr -e 1000 -c 2 -a 0 -i 21 -k AGT
h -t 2.168000000 -s 0 -d -1 -p cbr -e 1000 -c 2 -a 0 -i 21 -k AGT
+ -t 2.176000000 -s 0 -d -1 -p cbr -e 1000 -c 2 -a 0 -i 22 -k AGT 
- -t 2.176000000 -s 0 -d -1 -p cbr -e 1000 -c 2 -a 0 -i 22 -k AGT
h -t 2.176000000 -s 0 -d -1 -p cbr -e 1000 -c 2 -a 0 -i 22 -k AGT
+ -t 2.184000000 -s 0 -d -1 -p cbr -e 1000 -c 2 -a 0 -i 23 -k AGT 
- -t 2.184000000 -s 0 -d -1 -p cbr -e 1000 -c 2 -a 0 -i 23 -k AGT
h -t 2.184000000 -s 0 -d -1 -p cbr -e 1000 -c 2 -a 0 -i 23 -k AGT
+ -t 2.192000000 -s 0 -d -1 -p cbr -e 1000 -c 2 -a 0 -i 24 -k AGT 
- -t 2.192000000 -s 0 -d -1 -p cbr -e 1000 -c 2 -a 0 -i 24 -k AGT
h -t 2.192000000 -s 0 -d -1 -p cbr -e 1000 -c 2 -a 0 -i 24 -k AGT
+ -t 2.200000000 -s 0 -d -1 -p cbr -e 1000 -c 2 -a 0 -i 25 -k AGT 
- -t 2.200000000 -s 0 -d -1 -p cbr -e 1000 -c 2 -a 0 -i 25 -k AGT
h -t 2.200000000 -s 0 -d -1 -p cbr -e 1000 -c 2 -a 0 -i 25 -k AGT
+ -t 2.208000000 -s 0 -d -1 -p cbr -e 1000 -c 2 -a 0 -i 26 -k AGT 
- -t 2.208000000 -s 0 -d -1 -p cbr -e 1000 -c 2 -a 0 -i 26 -k AGT
h -t 2.208000000 -s 0 -d -1 -p cbr -e 1000 -c 2 -a 0 -i 26 -k AGT
+ -t 2.216000000 -s 0 -d -1 -p cbr -e 1000 -c 2 -a 0 -i 27 -k AGT 
- -t 2.216000000 -s 0 -d -1 -p cbr -e 1000 -c 2 -a 0 -i 27 -k AGT
h -t 2.216000000 -s 0 -d -1 -p cbr -e 1000 -c 2 -a 0 -i 27 -k AGT
+ -t 2.224000000 -s 0 -d -1 -p cbr -e 1000 -c 2 -a 0 -i 28 -k AGT 
- -t 2.224000000 -s 0 -d -1 -p cbr -e 1000 -c 2 -a 0 -i 28 -k AGT
h -t 2.224000000 -s 0 -d -1 -p cbr -e 1000 -c 2 -a 0 -i 28 -k AGT
+ -t 2.232000000 -s 0 -d -1 -p cbr -e 1000 -c 2 -a 0 -i 29 -k AGT 
- -t 2.232000000 -s 0 -d -1 -p cbr -e 1000 -c 2 -a 0 -i 29 -k AGT
h -t 2.232000000 -s 0 -d -1 -p cbr -e 1000 -c 2 -a 0 -i 29 -k AGT
+ -t 2.240000000 -s 0 -d -1 -p cbr -e 1000 -c 2 -a 0 -i 30 -k AGT 
- -t 2.240000000 -s 0 -d -1 -p cbr -e 1000 -c 2 -a 0 -i 30 -k AGT
h -t 2.240000000 -s 0 -d -1 -p cbr -e 1000 -c 2 -a 0 -i 30 -k AGT
+ -t 2.248000000 -s 0 -d -1 -p cbr -e 1000 -c 2 -a 0 -i 31 -k AGT 
- -t 2.248000000 -s 0 -d -1 -p cbr -e 1000 -c 2 -a 0 -i 31 -k AGT
h -t 2.248000000 -s 0 -d -1 -p cbr -e 1000 -c 2 -a 0 -i 31 -k AGT
+ -t 2.256000000 -s 0 -d -1 -p cbr -e 1000 -c 2 -a 0 -i 32 -k AGT 
- -t 2.256000000 -s 0 -d -1 -p cbr -e 1000 -c 2 -a 0 -i 32 -k AGT
h -t 2.256000000 -s 0 -d -1 -p cbr -e 1000 -c 2 -a 0 -i 32 -k AGT
+ -t 2.264000000 -s 0 -d -1 -p cbr -e 1000 -c 2 -a 0 -i 33 -k AGT 
- -t 2.264000000 -s 0 -d -1 -p cbr -e 1000 -c 2 -a 0 -i 33 -k AGT
h -t 2.264000000 -s 0 -d -1 -p cbr -e 1000 -c 2 -a 0 -i 33 -k AGT
+ -t 2.272000000 -s 0 -d -1 -p cbr -e 1000 -c 2 -a 0 -i 34 -k AGT 
- -t 2.272000000 -s 0 -d -1 -p cbr -e 1000 -c 2 -a 0 -i 34 -k AGT
h -t 2.272000000 -s 0 -d -1 -p cbr -e 1000 -c 2 -a 0 -i 34 -k AGT
+ -t 2.280000000 -s 0 -d -1 -p cbr -e 1000 -c 2 -a 0 -i 35 -k AGT 
- -t 2.280000000 -s 0 -d -1 -p cbr -e 1000 -c 2 -a 0 -i 35 -k AGT
h -t 2.280000000 -s 0 -d -1 -p cbr -e 1000 -c 2 -a 0 -i 35 -k AGT
+ -t 2.288000000 -s 0 -d -1 -p cbr -e 1000 -c 2 -a 0 -i 36 -k AGT 
- -t 2.288000000 -s 0 -d -1 -p cbr -e 1000 -c 2 -a 0 -i 36 -k AGT
h -t 2.288000000 -s 0 -d -1 -p cbr -e 1000 -c 2 -a 0 -i 36 -k AGT
+ -t 2.296000000 -s 0 -d -1 -p cbr -e 1000 -c 2 -a 0 -i 37 -k AGT 
- -t 2.296000000 -s 0 -d -1 -p cbr -e 1000 -c 2 -a 0 -i 37 -k AGT
h -t 2.296000000 -s 0 -d -1 -p cbr -e 1000 -c 2 -a 0 -i 37 -k AGT
+ -t 2.304000000 -s 0 -d -1 -p cbr -e 1000 -c 2 -a 0 -i 38 -k AGT 
- -t 2.304000000 -s 0 -d -1 -p cbr -e 1000 -c 2 -a 0 -i 38 -k AGT
h -t 2.304000000 -s 0 -d -1 -p cbr -e 1000 -c 2 -a 0 -i 38 -k AGT
+ -t 2.312000000 -s 0 -d -1 -p cbr -e 1000 -c 2 -a 0 -i 39 -k AGT 
- -t 2.312000000 -s 0 -d -1 -p cbr -e 1000 -c 2 -a 0 -i 39 -k AGT
h -t 2.312000000 -s 0 -d -1 -p cbr -e 1000 -c 2 -a 0 -i 39 -k AGT
+ -t 2.320000000 -s 0 -d -1 -p cbr -e 1000 -c 2 -a 0 -i 40 -k AGT 
- -t 2.320000000 -s 0 -d -1 -p cbr -e 1000 -c 2 -a 0 -i 40 -k AGT
h -t 2.320000000 -s 0 -d -1 -p cbr -e 1000 -c 2 -a 0 -i 40 -k AGT
+ -t 2.328000000 -s 0 -d -1 -p cbr -e 1000 -c 2 -a 0 -i 41 -k AGT 
- -t 2.328000000 -s 0 -d -1 -p cbr -e 1000 -c 2 -a 0 -i 41 -k AGT
h -t 2.328000000 -s 0 -d -1 -p cbr -e 1000 -c 2 -a 0 -i 41 -k AGT
+ -t 2.336000000 -s 0 -d -1 -p cbr -e 1000 -c 2 -a 0 -i 42 -k AGT 
- -t 2.336000000 -s 0 -d -1 -p cbr -e 1000 -c 2 -a 0 -i 42 -k AGT
h -t 2.336000000 -s 0 -d -1 -p cbr -e 1000 -c 2 -a 0 -i 42 -k AGT
+ -t 2.344000000 -s 0 -d -1 -p cbr -e 1000 -c 2 -a 0 -i 43 -k AGT 
- -t 2.344000000 -s 0 -d -1 -p cbr -e 1000 -c 2 -a 0 -i 43 -k AGT
h -t 2.344000000 -s 0 -d -1 -p cbr -e 1000 -c 2 -a 0 -i 43 -k AGT
+ -t 2.352000000 -s 0 -d -1 -p cbr -e 1000 -c 2 -a 0 -i 44 -k AGT 
- -t 2.352000000 -s 0 -d -1 -p cbr -e 1000 -c 2 -a 0 -i 44 -k AGT
h -t 2.352000000 -s 0 -d -1 -p cbr -e 1000 -c 2 -a 0 -i 44 -k AGT
+ -t 2.360000000 -s 0 -d -1 -p cbr -e 1000 -c 2 -a 0 -i 45 -k AGT 
- -t 2.360000000 -s 0 -d -1 -p cbr -e 1000 -c 2 -a 0 -i 45 -k AGT
h -t 2.360000000 -s 0 -d -1 -p cbr -e 1000 -c 2 -a 0 -i 45 -k AGT
+ -t 2.368000000 -s 0 -d -1 -p cbr -e 1000 -c 2 -a 0 -i 46 -k AGT 
- -t 2.368000000 -s 0 -d -1 -p cbr -e 1000 -c 2 -a 0 -i 46 -k AGT
h -t 2.368000000 -s 0 -d -1 -p cbr -e 1000 -c 2 -a 0 -i 46 -k AGT
+ -t 2.376000000 -s 0 -d -1 -p cbr -e 1000 -c 2 -a 0 -i 47 -k AGT 
- -t 2.376000000 -s 0 -d -1 -p cbr -e 1000 -c 2 -a 0 -i 47 -k AGT
h -t 2.376000000 -s 0 -d -1 -p cbr -e 1000 -c 2 -a 0 -i 47 -k AGT
+ -t 2.384000000 -s 0 -d -1 -p cbr -e 1000 -c 2 -a 0 -i 48 -k AGT 
- -t 2.384000000 -s 0 -d -1 -p cbr -e 1000 -c 2 -a 0 -i 48 -k AGT
h -t 2.384000000 -s 0 -d -1 -p cbr -e 1000 -c 2 -a 0 -i 48 -k AGT
+ -t 2.392000000 -s 0 -d -1 -p cbr -e 1000 -c 2 -a 0 -i 49 -k AGT 
- -t 2.392000000 -s 0 -d -1 -p cbr -e 1000 -c 2 -a 0 -i 49 -k AGT
h -t 2.392000000 -s 0 -d -1 -p cbr -e 1000 -c 2 -a 0 -i 49 -k AGT
+ -t 2.400000000 -s 0 -d -1 -p cbr -e 1000 -c 2 -a 0 -i 50 -k AGT 
- -t 2.400000000 -s 0 -d -1 -p cbr -e 1000 -c 2 -a 0 -i 50 -k AGT
h -t 2.400000000 -s 0 -d -1 -p cbr -e 1000 -c 2 -a 0 -i 50 -k AGT
+ -t 2.408000000 -s 0 -d -1 -p cbr -e 1000 -c 2 -a 0 -i 51 -k AGT 
- -t 2.408000000 -s 0 -d -1 -p cbr -e 1000 -c 2 -a 0 -i 51 -k AGT
h -t 2.408000000 -s 0 -d -1 -p cbr -e 1000 -c 2 -a 0 -i 51 -k AGT
+ -t 2.416000000 -s 0 -d -1 -p cbr -e 1000 -c 2 -a 0 -i 52 -k AGT 
- -t 2.416000000 -s 0 -d -1 -p cbr -e 1000 -c 2 -a 0 -i 52 -k AGT
h -t 2.416000000 -s 0 -d -1 -p cbr -e 1000 -c 2 -a 0 -i 52 -k AGT
+ -t 2.424000000 -s 0 -d -1 -p cbr -e 1000 -c 2 -a 0 -i 53 -k AGT 
- -t 2.424000000 -s 0 -d -1 -p cbr -e 1000 -c 2 -a 0 -i 53 -k AGT
h -t 2.424000000 -s 0 -d -1 -p cbr -e 1000 -c 2 -a 0 -i 53 -k AGT
+ -t 2.432000000 -s 0 -d -1 -p cbr -e 1000 -c 2 -a 0 -i 54 -k AGT 
- -t 2.432000000 -s 0 -d -1 -p cbr -e 1000 -c 2 -a 0 -i 54 -k AGT
h -t 2.432000000 -s 0 -d -1 -p cbr -e 1000 -c 2 -a 0 -i 54 -k AGT
+ -t 2.440000000 -s 0 -d -1 -p cbr -e 1000 -c 2 -a 0 -i 55 -k AGT 
- -t 2.440000000 -s 0 -d -1 -p cbr -e 1000 -c 2 -a 0 -i 55 -k AGT
h -t 2.440000000 -s 0 -d -1 -p cbr -e 1000 -c 2 -a 0 -i 55 -k AGT
+ -t 2.448000000 -s 0 -d -1 -p cbr -e 1000 -c 2 -a 0 -i 56 -k AGT 
- -t 2.448000000 -s 0 -d -1 -p cbr -e 1000 -c 2 -a 0 -i 56 -k AGT
h -t 2.448000000 -s 0 -d -1 -p cbr -e 1000 -c 2 -a 0 -i 56 -k AGT
+ -t 2.456000000 -s 0 -d -1 -p cbr -e 1000 -c 2 -a 0 -i 57 -k AGT 
- -t 2.456000000 -s 0 -d -1 -p cbr -e 1000 -c 2 -a 0 -i 57 -k AGT
h -t 2.456000000 -s 0 -d -1 -p cbr -e 1000 -c 2 -a 0 -i 57 -k AGT
+ -t 2.464000000 -s 0 -d -1 -p cbr -e 1000 -c 2 -a 0 -i 58 -k AGT 
- -t 2.464000000 -s 0 -d -1 -p cbr -e 1000 -c 2 -a 0 -i 58 -k AGT
h -t 2.464000000 -s 0 -d -1 -p cbr -e 1000 -c 2 -a 0 -i 58 -k AGT
+ -t 2.472000000 -s 0 -d -1 -p cbr -e 1000 -c 2 -a 0 -i 59 -k AGT 
- -t 2.472000000 -s 0 -d -1 -p cbr -e 1000 -c 2 -a 0 -i 59 -k AGT
h -t 2.472000000 -s 0 -d -1 -p cbr -e 1000 -c 2 -a 0 -i 59 -k AGT
+ -t 2.480000000 -s 0 -d -1 -p cbr -e 1000 -c 2 -a 0 -i 60 -k AGT 
- -t 2.480000000 -s 0 -d -1 -p cbr -e 1000 -c 2 -a 0 -i 60 -k AGT
h -t 2.480000000 -s 0 -d -1 -p cbr -e 1000 -c 2 -a 0 -i 60 -k AGT
+ -t 2.488000000 -s 0 -d -1 -p cbr -e 1000 -c 2 -a 0 -i 61 -k AGT 
- -t 2.488000000 -s 0 -d -1 -p cbr -e 1000 -c 2 -a 0 -i 61 -k AGT
h -t 2.488000000 -s 0 -d -1 -p cbr -e 1000 -c 2 -a 0 -i 61 -k AGT
+ -t 2.496000000 -s 0 -d -1 -p cbr -e 1000 -c 2 -a 0 -i 62 -k AGT 
- -t 2.496000000 -s 0 -d -1 -p cbr -e 1000 -c 2 -a 0 -i 62 -k AGT
h -t 2.496000000 -s 0 -d -1 -p cbr -e 1000 -c 2 -a 0 -i 62 -k AGT
+ -t 2.504000000 -s 0 -d -1 -p cbr -e 1000 -c 2 -a 0 -i 63 -k AGT 
- -t 2.504000000 -s 0 -d -1 -p cbr -e 1000 -c 2 -a 0 -i 63 -k AGT
h -t 2.504000000 -s 0 -d -1 -p cbr -e 1000 -c 2 -a 0 -i 63 -k AGT
+ -t 2.512000000 -s 0 -d -1 -p cbr -e 1000 -c 2 -a 0 -i 64 -k AGT 
- -t 2.512000000 -s 0 -d -1 -p cbr -e 1000 -c 2 -a 0 -i 64 -k AGT
h -t 2.512000000 -s 0 -d -1 -p cbr -e 1000 -c 2 -a 0 -i 64 -k AGT
d -t 2.512000000 -s 0 -d -1 -p cbr -e 1020 -c 2 -a 0 -i 0 -k RTR
+ -t 2.520000000 -s 0 -d -1 -p cbr -e 1000 -c 2 -a 0 -i 65 -k AGT 
- -t 2.520000000 -s 0 -d -1 -p cbr -e 1000 -c 2 -a 0 -i 65 -k AGT
h -t 2.520000000 -s 0 -d -1 -p cbr -e 1000 -c 2 -a 0 -i 65 -k AGT
d -t 2.520000000 -s 0 -d -1 -p cbr -e 1020 -c 2 -a 0 -i 1 -k RTR
+ -t 2.528000000 -s 0 -d -1 -p cbr -e 1000 -c 2 -a 0 -i 66 -k AGT 
- -t 2.528000000 -s 0 -d -1 -p cbr -e 1000 -c 2 -a 0 -i 66 -k AGT
h -t 2.528000000 -s 0 -d -1 -p cbr -e 1000 -c 2 -a 0 -i 66 -k AGT
d -t 2.528000000 -s 0 -d -1 -p cbr -e 1020 -c 2 -a 0 -i 2 -k RTR
+ -t 2.536000000 -s 0 -d -1 -p cbr -e 1000 -c 2 -a 0 -i 67 -k AGT 
- -t 2.536000000 -s 0 -d -1 -p cbr -e 1000 -c 2 -a 0 -i 67 -k AGT
h -t 2.536000000 -s 0 -d -1 -p cbr -e 1000 -c 2 -a 0 -i 67 -k AGT
d -t 2.536000000 -s 0 -d -1 -p cbr -e 1020 -c 2 -a 0 -i 3 -k RTR
+ -t 2.544000000 -s 0 -d -1 -p cbr -e 1000 -c 2 -a 0 -i 68 -k AGT 
- -t 2.544000000 -s 0 -d -1 -p cbr -e 1000 -c 2 -a 0 -i 68 -k AGT
h -t 2.544000000 -s 0 -d -1 -p cbr -e 1000 -c 2 -a 0 -i 68 -k AGT
d -t 2.544000000 -s 0 -d -1 -p cbr -e 1020 -c 2 -a 0 -i 4 -k RTR
+ -t 2.552000000 -s 0 -d -1 -p cbr -e 1000 -c 2 -a 0 -i 69 -k AGT 
- -t 2.552000000 -s 0 -d -1 -p cbr -e 1000 -c 2 -a 0 -i 69 -k AGT
h -t 2.552000000 -s 0 -d -1 -p cbr -e 1000 -c 2 -a 0 -i 69 -k AGT
d -t 2.552000000 -s 0 -d -1 -p cbr -e 1020 -c 2 -a 0 -i 5 -k RTR
+ -t 2.560000000 -s 0 -d -1 -p cbr -e 1000 -c 2 -a 0 -i 70 -k AGT 
- -t 2.560000000 -s 0 -d -1 -p cbr -e 1000 -c 2 -a 0 -i 70 -k AGT
h -t 2.560000000 -s 0 -d -1 -p cbr -e 1000 -c 2 -a 0 -i 70 -k AGT
d -t 2.560000000 -s 0 -d -1 -p cbr -e 1020 -c 2 -a 0 -i 6 -k RTR
+ -t 2.568000000 -s 0 -d -1 -p cbr -e 1000 -c 2 -a 0 -i 71 -k AGT 
- -t 2.568000000 -s 0 -d -1 -p cbr -e 1000 -c 2 -a 0 -i 71 -k AGT
h -t 2.568000000 -s 0 -d -1 -p cbr -e 1000 -c 2 -a 0 -i 71 -k AGT
d -t 2.568000000 -s 0 -d -1 -p cbr -e 1020 -c 2 -a 0 -i 7 -k RTR
+ -t 2.576000000 -s 0 -d -1 -p cbr -e 1000 -c 2 -a 0 -i 72 -k AGT 
- -t 2.576000000 -s 0 -d -1 -p cbr -e 1000 -c 2 -a 0 -i 72 -k AGT
h -t 2.576000000 -s 0 -d -1 -p cbr -e 1000 -c 2 -a 0 -i 72 -k AGT
d -t 2.576000000 -s 0 -d -1 -p cbr -e 1020 -c 2 -a 0 -i 8 -k RTR
+ -t 2.584000000 -s 0 -d -1 -p cbr -e 1000 -c 2 -a 0 -i 73 -k AGT 
- -t 2.584000000 -s 0 -d -1 -p cbr -e 1000 -c 2 -a 0 -i 73 -k AGT
h -t 2.584000000 -s 0 -d -1 -p cbr -e 1000 -c 2 -a 0 -i 73 -k AGT
d -t 2.584000000 -s 0 -d -1 -p cbr -e 1020 -c 2 -a 0 -i 9 -k RTR
+ -t 2.592000000 -s 0 -d -1 -p cbr -e 1000 -c 2 -a 0 -i 74 -k AGT 
- -t 2.592000000 -s 0 -d -1 -p cbr -e 1000 -c 2 -a 0 -i 74 -k AGT
h -t 2.592000000 -s 0 -d -1 -p cbr -e 1000 -c 2 -a 0 -i 74 -k AGT
d -t 2.592000000 -s 0 -d -1 -p cbr -e 1020 -c 2 -a 0 -i 10 -k RTR
+ -t 2.600000000 -s 0 -d -1 -p cbr -e 1000 -c 2 -a 0 -i 75 -k AGT 
- -t 2.600000000 -s 0 -d -1 -p cbr -e 1000 -c 2 -a 0 -i 75 -k AGT
h -t 2.600000000 -s 0 -d -1 -p cbr -e 1000 -c 2 -a 0 -i 75 -k AGT
d -t 2.600000000 -s 0 -d -1 -p cbr -e 1020 -c 2 -a 0 -i 11 -k RTR
+ -t 2.608000000 -s 0 -d -1 -p cbr -e 1000 -c 2 -a 0 -i 76 -k AGT 
- -t 2.608000000 -s 0 -d -1 -p cbr -e 1000 -c 2 -a 0 -i 76 -k AGT
h -t 2.608000000 -s 0 -d -1 -p cbr -e 1000 -c 2 -a 0 -i 76 -k AGT
d -t 2.608000000 -s 0 -d -1 -p cbr -e 1020 -c 2 -a 0 -i 12 -k RTR
+ -t 2.616000000 -s 0 -d -1 -p cbr -e 1000 -c 2 -a 0 -i 77 -k AGT 
- -t 2.616000000 -s 0 -d -1 -p cbr -e 1000 -c 2 -a 0 -i 77 -k AGT
h -t 2.616000000 -s 0 -d -1 -p cbr -e 1000 -c 2 -a 0 -i 77 -k AGT
d -t 2.616000000 -s 0 -d -1 -p cbr -e 1020 -c 2 -a 0 -i 13 -k RTR
+ -t 2.624000000 -s 0 -d -1 -p cbr -e 1000 -c 2 -a 0 -i 78 -k AGT 
- -t 2.624000000 -s 0 -d -1 -p cbr -e 1000 -c 2 -a 0 -i 78 -k AGT
h -t 2.624000000 -s 0 -d -1 -p cbr -e 1000 -c 2 -a 0 -i 78 -k AGT
d -t 2.624000000 -s 0 -d -1 -p cbr -e 1020 -c 2 -a 0 -i 14 -k RTR
+ -t 2.632000000 -s 0 -d -1 -p cbr -e 1000 -c 2 -a 0 -i 79 -k AGT 
- -t 2.632000000 -s 0 -d -1 -p cbr -e 1000 -c 2 -a 0 -i 79 -k AGT
h -t 2.632000000 -s 0 -d -1 -p cbr -e 1000 -c 2 -a 0 -i 79 -k AGT
d -t 2.632000000 -s 0 -d -1 -p cbr -e 1020 -c 2 -a 0 -i 15 -k RTR
+ -t 2.640000000 -s 0 -d -1 -p cbr -e 1000 -c 2 -a 0 -i 80 -k AGT 
- -t 2.640000000 -s 0 -d -1 -p cbr -e 1000 -c 2 -a 0 -i 80 -k AGT
h -t 2.640000000 -s 0 -d -1 -p cbr -e 1000 -c 2 -a 0 -i 80 -k AGT
d -t 2.640000000 -s 0 -d -1 -p cbr -e 1020 -c 2 -a 0 -i 16 -k RTR
+ -t 2.648000000 -s 0 -d -1 -p cbr -e 1000 -c 2 -a 0 -i 81 -k AGT 
- -t 2.648000000 -s 0 -d -1 -p cbr -e 1000 -c 2 -a 0 -i 81 -k AGT
h -t 2.648000000 -s 0 -d -1 -p cbr -e 1000 -c 2 -a 0 -i 81 -k AGT
d -t 2.648000000 -s 0 -d -1 -p cbr -e 1020 -c 2 -a 0 -i 17 -k RTR
+ -t 2.656000000 -s 0 -d -1 -p cbr -e 1000 -c 2 -a 0 -i 82 -k AGT 
- -t 2.656000000 -s 0 -d -1 -p cbr -e 1000 -c 2 -a 0 -i 82 -k AGT
h -t 2.656000000 -s 0 -d -1 -p cbr -e 1000 -c 2 -a 0 -i 82 -k AGT
d -t 2.656000000 -s 0 -d -1 -p cbr -e 1020 -c 2 -a 0 -i 18 -k RTR
+ -t 2.664000000 -s 0 -d -1 -p cbr -e 1000 -c 2 -a 0 -i 83 -k AGT 
- -t 2.664000000 -s 0 -d -1 -p cbr -e 1000 -c 2 -a 0 -i 83 -k AGT
h -t 2.664000000 -s 0 -d -1 -p cbr -e 1000 -c 2 -a 0 -i 83 -k AGT
d -t 2.664000000 -s 0 -d -1 -p cbr -e 1020 -c 2 -a 0 -i 19 -k RTR
+ -t 2.672000000 -s 0 -d -1 -p cbr -e 1000 -c 2 -a 0 -i 84 -k AGT 
- -t 2.672000000 -s 0 -d -1 -p cbr -e 1000 -c 2 -a 0 -i 84 -k AGT
h -t 2.672000000 -s 0 -d -1 -p cbr -e 1000 -c 2 -a 0 -i 84 -k AGT
d -t 2.672000000 -s 0 -d -1 -p cbr -e 1020 -c 2 -a 0 -i 20 -k RTR
+ -t 2.680000000 -s 0 -d -1 -p cbr -e 1000 -c 2 -a 0 -i 85 -k AGT 
- -t 2.680000000 -s 0 -d -1 -p cbr -e 1000 -c 2 -a 0 -i 85 -k AGT
h -t 2.680000000 -s 0 -d -1 -p cbr -e 1000 -c 2 -a 0 -i 85 -k AGT
d -t 2.680000000 -s 0 -d -1 -p cbr -e 1020 -c 2 -a 0 -i 21 -k RTR
+ -t 2.688000000 -s 0 -d -1 -p cbr -e 1000 -c 2 -a 0 -i 86 -k AGT 
- -t 2.688000000 -s 0 -d -1 -p cbr -e 1000 -c 2 -a 0 -i 86 -k AGT
h -t 2.688000000 -s 0 -d -1 -p cbr -e 1000 -c 2 -a 0 -i 86 -k AGT
d -t 2.688000000 -s 0 -d -1 -p cbr -e 1020 -c 2 -a 0 -i 22 -k RTR
+ -t 2.696000000 -s 0 -d -1 -p cbr -e 1000 -c 2 -a 0 -i 87 -k AGT 
- -t 2.696000000 -s 0 -d -1 -p cbr -e 1000 -c 2 -a 0 -i 87 -k AGT
h -t 2.696000000 -s 0 -d -1 -p cbr -e 1000 -c 2 -a 0 -i 87 -k AGT
d -t 2.696000000 -s 0 -d -1 -p cbr -e 1020 -c 2 -a 0 -i 23 -k RTR
+ -t 2.704000000 -s 0 -d -1 -p cbr -e 1000 -c 2 -a 0 -i 88 -k AGT 
- -t 2.704000000 -s 0 -d -1 -p cbr -e 1000 -c 2 -a 0 -i 88 -k AGT
h -t 2.704000000 -s 0 -d -1 -p cbr -e 1000 -c 2 -a 0 -i 88 -k AGT
d -t 2.704000000 -s 0 -d -1 -p cbr -e 1020 -c 2 -a 0 -i 24 -k RTR
+ -t 2.712000000 -s 0 -d -1 -p cbr -e 1000 -c 2 -a 0 -i 89 -k AGT 
- -t 2.712000000 -s 0 -d -1 -p cbr -e 1000 -c 2 -a 0 -i 89 -k AGT
h -t 2.712000000 -s 0 -d -1 -p cbr -e 1000 -c 2 -a 0 -i 89 -k AGT
d -t 2.712000000 -s 0 -d -1 -p cbr -e 1020 -c 2 -a 0 -i 25 -k RTR
+ -t 2.720000000 -s 0 -d -1 -p cbr -e 1000 -c 2 -a 0 -i 90 -k AGT 
- -t 2.720000000 -s 0 -d -1 -p cbr -e 1000 -c 2 -a 0 -i 90 -k AGT
h -t 2.720000000 -s 0 -d -1 -p cbr -e 1000 -c 2 -a 0 -i 90 -k AGT
d -t 2.720000000 -s 0 -d -1 -p cbr -e 1020 -c 2 -a 0 -i 26 -k RTR
+ -t 2.728000000 -s 0 -d -1 -p cbr -e 1000 -c 2 -a 0 -i 91 -k AGT 
- -t 2.728000000 -s 0 -d -1 -p cbr -e 1000 -c 2 -a 0 -i 91 -k AGT
h -t 2.728000000 -s 0 -d -1 -p cbr -e 1000 -c 2 -a 0 -i 91 -k AGT
d -t 2.728000000 -s 0 -d -1 -p cbr -e 1020 -c 2 -a 0 -i 27 -k RTR
+ -t 2.736000000 -s 0 -d -1 -p cbr -e 1000 -c 2 -a 0 -i 92 -k AGT 
- -t 2.736000000 -s 0 -d -1 -p cbr -e 1000 -c 2 -a 0 -i 92 -k AGT
h -t 2.736000000 -s 0 -d -1 -p cbr -e 1000 -c 2 -a 0 -i 92 -k AGT
d -t 2.736000000 -s 0 -d -1 -p cbr -e 1020 -c 2 -a 0 -i 28 -k RTR
+ -t 2.744000000 -s 0 -d -1 -p cbr -e 1000 -c 2 -a 0 -i 93 -k AGT 
- -t 2.744000000 -s 0 -d -1 -p cbr -e 1000 -c 2 -a 0 -i 93 -k AGT
h -t 2.744000000 -s 0 -d -1 -p cbr -e 1000 -c 2 -a 0 -i 93 -k AGT
d -t 2.744000000 -s 0 -d -1 -p cbr -e 1020 -c 2 -a 0 -i 29 -k RTR
+ -t 2.752000000 -s 0 -d -1 -p cbr -e 1000 -c 2 -a 0 -i 94 -k AGT 
- -t 2.752000000 -s 0 -d -1 -p cbr -e 1000 -c 2 -a 0 -i 94 -k AGT
h -t 2.752000000 -s 0 -d -1 -p cbr -e 1000 -c 2 -a 0 -i 94 -k AGT
d -t 2.752000000 -s 0 -d -1 -p cbr -e 1020 -c 2 -a 0 -i 30 -k RTR
+ -t 2.760000000 -s 0 -d -1 -p cbr -e 1000 -c 2 -a 0 -i 95 -k AGT 
- -t 2.760000000 -s 0 -d -1 -p cbr -e 1000 -c 2 -a 0 -i 95 -k AGT
h -t 2.760000000 -s 0 -d -1 -p cbr -e 1000 -c 2 -a 0 -i 95 -k AGT
d -t 2.760000000 -s 0 -d -1 -p cbr -e 1020 -c 2 -a 0 -i 31 -k RTR
+ -t 2.768000000 -s 0 -d -1 -p cbr -e 1000 -c 2 -a 0 -i 96 -k AGT 
- -t 2.768000000 -s 0 -d -1 -p cbr -e 1000 -c 2 -a 0 -i 96 -k AGT
h -t 2.768000000 -s 0 -d -1 -p cbr -e 1000 -c 2 -a 0 -i 96 -k AGT
d -t 2.768000000 -s 0 -d -1 -p cbr -e 1020 -c 2 -a 0 -i 32 -k RTR
+ -t 2.776000000 -s 0 -d -1 -p cbr -e 1000 -c 2 -a 0 -i 97 -k AGT 
- -t 2.776000000 -s 0 -d -1 -p cbr -e 1000 -c 2 -a 0 -i 97 -k AGT
h -t 2.776000000 -s 0 -d -1 -p cbr -e 1000 -c 2 -a 0 -i 97 -k AGT
d -t 2.776000000 -s 0 -d -1 -p cbr -e 1020 -c 2 -a 0 -i 33 -k RTR
+ -t 2.784000000 -s 0 -d -1 -p cbr -e 1000 -c 2 -a 0 -i 98 -k AGT 
- -t 2.784000000 -s 0 -d -1 -p cbr -e 1000 -c 2 -a 0 -i 98 -k AGT
h -t 2.784000000 -s 0 -d -1 -p cbr -e 1000 -c 2 -a 0 -i 98 -k AGT
d -t 2.784000000 -s 0 -d -1 -p cbr -e 1020 -c 2 -a 0 -i 34 -k RTR
+ -t 2.792000000 -s 0 -d -1 -p cbr -e 1000 -c 2 -a 0 -i 99 -k AGT 
- -t 2.792000000 -s 0 -d -1 -p cbr -e 1000 -c 2 -a 0 -i 99 -k AGT
h -t 2.792000000 -s 0 -d -1 -p cbr -e 1000 -c 2 -a 0 -i 99 -k AGT
d -t 2.792000000 -s 0 -d -1 -p cbr -e 1020 -c 2 -a 0 -i 35 -k RTR
+ -t 2.800000000 -s 0 -d -1 -p cbr -e 1000 -c 2 -a 0 -i 100 -k AGT 
- -t 2.800000000 -s 0 -d -1 -p cbr -e 1000 -c 2 -a 0 -i 100 -k AGT
h -t 2.800000000 -s 0 -d -1 -p cbr -e 1000 -c 2 -a 0 -i 100 -k AGT
d -t 2.800000000 -s 0 -d -1 -p cbr -e 1020 -c 2 -a 0 -i 36 -k RTR
+ -t 2.808000000 -s 0 -d -1 -p cbr -e 1000 -c 2 -a 0 -i 101 -k AGT 
- -t 2.808000000 -s 0 -d -1 -p cbr -e 1000 -c 2 -a 0 -i 101 -k AGT
h -t 2.808000000 -s 0 -d -1 -p cbr -e 1000 -c 2 -a 0 -i 101 -k AGT
d -t 2.808000000 -s 0 -d -1 -p cbr -e 1020 -c 2 -a 0 -i 37 -k RTR
+ -t 2.816000000 -s 0 -d -1 -p cbr -e 1000 -c 2 -a 0 -i 102 -k AGT 
- -t 2.816000000 -s 0 -d -1 -p cbr -e 1000 -c 2 -a 0 -i 102 -k AGT
h -t 2.816000000 -s 0 -d -1 -p cbr -e 1000 -c 2 -a 0 -i 102 -k AGT
d -t 2.816000000 -s 0 -d -1 -p cbr -e 1020 -c 2 -a 0 -i 38 -k RTR
+ -t 2.824000000 -s 0 -d -1 -p cbr -e 1000 -c 2 -a 0 -i 103 -k AGT 
- -t 2.824000000 -s 0 -d -1 -p cbr -e 1000 -c 2 -a 0 -i 103 -k AGT
h -t 2.824000000 -s 0 -d -1 -p cbr -e 1000 -c 2 -a 0 -i 103 -k AGT
d -t 2.824000000 -s 0 -d -1 -p cbr -e 1020 -c 2 -a 0 -i 39 -k RTR
+ -t 2.832000000 -s 0 -d -1 -p cbr -e 1000 -c 2 -a 0 -i 104 -k AGT 
- -t 2.832000000 -s 0 -d -1 -p cbr -e 1000 -c 2 -a 0 -i 104 -k AGT
h -t 2.832000000 -s 0 -d -1 -p cbr -e 1000 -c 2 -a 0 -i 104 -k AGT
d -t 2.832000000 -s 0 -d -1 -p cbr -e 1020 -c 2 -a 0 -i 40 -k RTR
+ -t 2.840000000 -s 0 -d -1 -p cbr -e 1000 -c 2 -a 0 -i 105 -k AGT 
- -t 2.840000000 -s 0 -d -1 -p cbr -e 1000 -c 2 -a 0 -i 105 -k AGT
h -t 2.840000000 -s 0 -d -1 -p cbr -e 1000 -c 2 -a 0 -i 105 -k AGT
d -t 2.840000000 -s 0 -d -1 -p cbr -e 1020 -c 2 -a 0 -i 41 -k RTR
+ -t 2.848000000 -s 0 -d -1 -p cbr -e 1000 -c 2 -a 0 -i 106 -k AGT 
- -t 2.848000000 -s 0 -d -1 -p cbr -e 1000 -c 2 -a 0 -i 106 -k AGT
h -t 2.848000000 -s 0 -d -1 -p cbr -e 1000 -c 2 -a 0 -i 106 -k AGT
d -t 2.848000000 -s 0 -d -1 -p cbr -e 1020 -c 2 -a 0 -i 42 -k RTR
+ -t 2.856000000 -s 0 -d -1 -p cbr -e 1000 -c 2 -a 0 -i 107 -k AGT 
- -t 2.856000000 -s 0 -d -1 -p cbr -e 1000 -c 2 -a 0 -i 107 -k AGT
h -t 2.856000000 -s 0 -d -1 -p cbr -e 1000 -c 2 -a 0 -i 107 -k AGT
d -t 2.856000000 -s 0 -d -1 -p cbr -e 1020 -c 2 -a 0 -i 43 -k RTR
+ -t 2.864000000 -s 0 -d -1 -p cbr -e 1000 -c 2 -a 0 -i 108 -k AGT 
- -t 2.864000000 -s 0 -d -1 -p cbr -e 1000 -c 2 -a 0 -i 108 -k AGT
h -t 2.864000000 -s 0 -d -1 -p cbr -e 1000 -c 2 -a 0 -i 108 -k AGT
d -t 2.864000000 -s 0 -d -1 -p cbr -e 1020 -c 2 -a 0 -i 44 -k RTR
+ -t 2.872000000 -s 0 -d -1 -p cbr -e 1000 -c 2 -a 0 -i 109 -k AGT 
- -t 2.872000000 -s 0 -d -1 -p cbr -e 1000 -c 2 -a 0 -i 109 -k AGT
h -t 2.872000000 -s 0 -d -1 -p cbr -e 1000 -c 2 -a 0 -i 109 -k AGT
d -t 2.872000000 -s 0 -d -1 -p cbr -e 1020 -c 2 -a 0 -i 45 -k RTR
+ -t 2.880000000 -s 0 -d -1 -p cbr -e 1000 -c 2 -a 0 -i 110 -k AGT 
- -t 2.880000000 -s 0 -d -1 -p cbr -e 1000 -c 2 -a 0 -i 110 -k AGT
h -t 2.880000000 -s 0 -d -1 -p cbr -e 1000 -c 2 -a 0 -i 110 -k AGT
d -t 2.880000000 -s 0 -d -1 -p cbr -e 1020 -c 2 -a 0 -i 46 -k RTR
+ -t 2.888000000 -s 0 -d -1 -p cbr -e 1000 -c 2 -a 0 -i 111 -k AGT 
- -t 2.888000000 -s 0 -d -1 -p cbr -e 1000 -c 2 -a 0 -i 111 -k AGT
h -t 2.888000000 -s 0 -d -1 -p cbr -e 1000 -c 2 -a 0 -i 111 -k AGT
d -t 2.888000000 -s 0 -d -1 -p cbr -e 1020 -c 2 -a 0 -i 47 -k RTR
+ -t 2.896000000 -s 0 -d -1 -p cbr -e 1000 -c 2 -a 0 -i 112 -k AGT 
- -t 2.896000000 -s 0 -d -1 -p cbr -e 1000 -c 2 -a 0 -i 112 -k AGT
h -t 2.896000000 -s 0 -d -1 -p cbr -e 1000 -c 2 -a 0 -i 112 -k AGT
d -t 2.896000000 -s 0 -d -1 -p cbr -e 1020 -c 2 -a 0 -i 48 -k RTR
+ -t 2.904000000 -s 0 -d -1 -p cbr -e 1000 -c 2 -a 0 -i 113 -k AGT 
- -t 2.904000000 -s 0 -d -1 -p cbr -e 1000 -c 2 -a 0 -i 113 -k AGT
h -t 2.904000000 -s 0 -d -1 -p cbr -e 1000 -c 2 -a 0 -i 113 -k AGT
d -t 2.904000000 -s 0 -d -1 -p cbr -e 1020 -c 2 -a 0 -i 49 -k RTR
+ -t 2.912000000 -s 0 -d -1 -p cbr -e 1000 -c 2 -a 0 -i 114 -k AGT 
- -t 2.912000000 -s 0 -d -1 -p cbr -e 1000 -c 2 -a 0 -i 114 -k AGT
h -t 2.912000000 -s 0 -d -1 -p cbr -e 1000 -c 2 -a 0 -i 114 -k AGT
d -t 2.912000000 -s 0 -d -1 -p cbr -e 1020 -c 2 -a 0 -i 50 -k RTR
+ -t 2.920000000 -s 0 -d -1 -p cbr -e 1000 -c 2 -a 0 -i 115 -k AGT 
- -t 2.920000000 -s 0 -d -1 -p cbr -e 1000 -c 2 -a 0 -i 115 -k AGT
h -t 2.920000000 -s 0 -d -1 -p cbr -e 1000 -c 2 -a 0 -i 115 -k AGT
d -t 2.920000000 -s 0 -d -1 -p cbr -e 1020 -c 2 -a 0 -i 51 -k RTR
+ -t 2.928000000 -s 0 -d -1 -p cbr -e 1000 -c 2 -a 0 -i 116 -k AGT 
- -t 2.928000000 -s 0 -d -1 -p cbr -e 1000 -c 2 -a 0 -i 116 -k AGT
h -t 2.928000000 -s 0 -d -1 -p cbr -e 1000 -c 2 -a 0 -i 116 -k AGT
d -t 2.928000000 -s 0 -d -1 -p cbr -e 1020 -c 2 -a 0 -i 52 -k RTR
+ -t 2.936000000 -s 0 -d -1 -p cbr -e 1000 -c 2 -a 0 -i 117 -k AGT 
- -t 2.936000000 -s 0 -d -1 -p cbr -e 1000 -c 2 -a 0 -i 117 -k AGT
h -t 2.936000000 -s 0 -d -1 -p cbr -e 1000 -c 2 -a 0 -i 117 -k AGT
d -t 2.936000000 -s 0 -d -1 -p cbr -e 1020 -c 2 -a 0 -i 53 -k RTR
+ -t 2.944000000 -s 0 -d -1 -p cbr -e 1000 -c 2 -a 0 -i 118 -k AGT 
- -t 2.944000000 -s 0 -d -1 -p cbr -e 1000 -c 2 -a 0 -i 118 -k AGT
h -t 2.944000000 -s 0 -d -1 -p cbr -e 1000 -c 2 -a 0 -i 118 -k AGT
d -t 2.944000000 -s 0 -d -1 -p cbr -e 1020 -c 2 -a 0 -i 54 -k RTR
+ -t 2.952000000 -s 0 -d -1 -p cbr -e 1000 -c 2 -a 0 -i 119 -k AGT 
- -t 2.952000000 -s 0 -d -1 -p cbr -e 1000 -c 2 -a 0 -i 119 -k AGT
h -t 2.952000000 -s 0 -d -1 -p cbr -e 1000 -c 2 -a 0 -i 119 -k AGT
d -t 2.952000000 -s 0 -d -1 -p cbr -e 1020 -c 2 -a 0 -i 55 -k RTR
+ -t 2.960000000 -s 0 -d -1 -p cbr -e 1000 -c 2 -a 0 -i 120 -k AGT 
- -t 2.960000000 -s 0 -d -1 -p cbr -e 1000 -c 2 -a 0 -i 120 -k AGT
h -t 2.960000000 -s 0 -d -1 -p cbr -e 1000 -c 2 -a 0 -i 120 -k AGT