M 0.00000 0 (100.00, 500.00, 0.00), (950.00, 500.00), 50.00
s 0.000000000 _0_ AGT  --- 0 udp 500 [0 0 0 0] ------- [0:0 4:0 32 0] 
r 0.000000000 _0_ RTR  --- 0 udp 500 [0 0 0 0] ------- [0:0 4:0 32 0] 
s 0.000000000 _0_ AGT  --- 1 udp 500 [0 0 0 0] ------- [0:0 4:0 32 0] 
r 0.000000000 _0_ RTR  --- 1 udp 500 [0 0 0 0] ------- [0:0 4:0 32 0] 
s 0.000000000 _0_ RTR  --- 0 AODV 48 [0 0 0 0] ------- [0:255 -1:255 30 0] [0x2 1 1 [4 0] [0 4]] (REQUEST)
s 0.000535000 _0_ MAC  --- 0 AODV 106 [0 ffffffff 0 800] ------- [0:255 -1:255 30 0] [0x2 1 1 [4 0] [0 4]] (REQUEST)
r 0.001383750 _1_ MAC  --- 0 AODV 48 [0 ffffffff 0 800] ------- [0:255 -1:255 30 0] [0x2 1 1 [4 0] [0 4]] (REQUEST)
r 0.001408750 _1_ RTR  --- 0 AODV 48 [0 ffffffff 0 800] ------- [0:255 -1:255 30 0] [0x2 1 1 [4 0] [0 4]] (REQUEST)
s 0.001550796 _1_ RTR  --- 0 AODV 48 [0 ffffffff 0 800] ------- [1:255 -1:255 29 0] [0x2 2 1 [4 0] [0 4]] (REQUEST)
s 0.001925796 _1_ MAC  --- 0 AODV 106 [0 ffffffff 1 800] ------- [1:255 -1:255 29 0] [0x2 2 1 [4 0] [0 4]] (REQUEST)
r 0.002774463 _2_ MAC  --- 0 AODV 48 [0 ffffffff 1 800] ------- [1:255 -1:255 29 0] [0x2 2 1 [4 0] [0 4]] (REQUEST)
r 0.002774546 _0_ MAC  --- 0 AODV 48 [0 ffffffff 1 800] ------- [1:255 -1:255 29 0] [0x2 2 1 [4 0] [0 4]] (REQUEST)
r 0.002799463 _2_ RTR  --- 0 AODV 48 [0 ffffffff 1 800] ------- [1:255 -1:255 29 0] [0x2 2 1 [4 0] [0 4]] (REQUEST)
r 0.002799546 _0_ RTR  --- 0 AODV 48 [0 ffffffff 1 800] ------- [1:255 -1:255 29 0] [0x2 2 1 [4 0] [0 4]] (REQUEST)
s 0.010791018 _2_ RTR  --- 0 AODV 48 [0 ffffffff 1 800] ------- [2:255 -1:255 28 0] [0x2 3 1 [4 0] [0 4]] (REQUEST)
s 0.011026018 _2_ MAC  --- 0 AODV 106 [0 ffffffff 2 800] ------- [2:255 -1:255 28 0] [0x2 3 1 [4 0] [0 4]] (REQUEST)
r 0.011874684 _1_ MAC  --- 0 AODV 48 [0 ffffffff 2 800] ------- [2:255 -1:255 28 0] [0x2 3 1 [4 0] [0 4]] (REQUEST)
r 0.011874684 _3_ MAC  --- 0 AODV 48 [0 ffffffff 2 800] ------- [2:255 -1:255 28 0] [0x2 3 1 [4 0] [0 4]] (REQUEST)
r 0.011899684 _1_ RTR  --- 0 AODV 48 [0 ffffffff 2 800] ------- [2:255 -1:255 28 0] [0x2 3 1 [4 0] [0 4]] (REQUEST)
r 0.011899684 _3_ RTR  --- 0 AODV 48 [0 ffffffff 2 800] ------- [2:255 -1:255 28 0] [0x2 3 1 [4 0] [0 4]] (REQUEST)
s 0.014245702 _3_ RTR  --- 0 AODV 48 [0 ffffffff 2 800] ------- [3:255 -1:255 27 0] [0x2 4 1 [4 0] [0 4]] (REQUEST)
s 0.014680702 _3_ MAC  --- 0 AODV 106 [0 ffffffff 3 800] ------- [3:255 -1:255 27 0] [0x2 4 1 [4 0] [0 4]] (REQUEST)
r 0.015529368 _2_ MAC  --- 0 AODV 48 [0 ffffffff 3 800] ------- [3:255 -1:255 27 0] [0x2 4 1 [4 0] [0 4]] (REQUEST)
r 0.015529368 _4_ MAC  --- 0 AODV 48 [0 ffffffff 3 800] ------- [3:255 -1:255 27 0] [0x2 4 1 [4 0] [0 4]] (REQUEST)
r 0.015554368 _2_ RTR  --- 0 AODV 48 [0 ffffffff 3 800] ------- [3:255 -1:255 27 0] [0x2 4 1 [4 0] [0 4]] (REQUEST)
r 0.015554368 _4_ RTR  --- 0 AODV 48 [0 ffffffff 3 800] ------- [3:255 -1:255 27 0] [0x2 4 1 [4 0] [0 4]] (REQUEST)
s 0.015554368 _4_ RTR  --- 0 AODV 44 [0 0 0 0] ------- [4:255 0:255 30 3] [0x4 1 [4 4] 10.000000] (REPLY)
s 0.015849368 _4_ MAC  --- 0 ARP 86 [0 ffffffff 4 806] ------- [REQUEST 4/4 0/3]
r 0.016538035 _3_ MAC  --- 0 ARP 28 [0 ffffffff 4 806] ------- [REQUEST 4/4 0/3]
s 0.017133035 _3_ MAC  --- 0 RTS 44 [52e 4 3 0] 
r 0.017485702 _4_ MAC  --- 0 RTS 44 [52e 4 3 0] 
s 0.017495702 _4_ MAC  --- 0 CTS 38 [3f4 3 0 0] 
r 0.017800368 _3_ MAC  --- 0 CTS 38 [3f4 3 0 0] 
s 0.017810368 _3_ MAC  --- 0 ARP 86 [13a 4 3 806] ------- [REPLY 3/3 4/4]
r 0.018499035 _4_ MAC  --- 0 ARP 28 [13a 4 3 806] ------- [REPLY 3/3 4/4]
s 0.018509035 _4_ MAC  --- 0 ACK 38 [0 3 0 0] 
r 0.018813702 _3_ MAC  --- 0 ACK 38 [0 3 0 0] 
s 0.019023035 _4_ MAC  --- 0 RTS 44 [5ae 3 4 0] 
r 0.019375702 _3_ MAC  --- 0 RTS 44 [5ae 3 4 0] 
s 0.019385702 _3_ MAC  --- 0 CTS 38 [474 4 0 0] 
r 0.019690368 _4_ MAC  --- 0 CTS 38 [474 4 0 0] 
s 0.019700368 _4_ MAC  --- 0 AODV 102 [13a 3 4 800] ------- [4:255 0:255 30 3] [0x4 1 [4 4] 10.000000] (REPLY)
r 0.020517035 _3_ MAC  --- 0 AODV 44 [13a 3 4 800] ------- [4:255 0:255 30 3] [0x4 1 [4 4] 10.000000] (REPLY)
s 0.020527035 _3_ MAC  --- 0 ACK 38 [0 4 0 0] 
r 0.020542035 _3_ RTR  --- 0 AODV 44 [13a 3 4 800] ------- [4:255 0:255 30 3] [0x4 1 [4 4] 10.000000] (REPLY)
f 0.020542035 _3_ RTR  --- 0 AODV 44 [13a 3 4 800] ------- [4:255 0:255 29 2] [0x4 2 [4 4] 10.000000] (REPLY)
r 0.020831702 _4_ MAC  --- 0 ACK 38 [0 4 0 0] 
s 0.021101035 _3_ MAC  --- 0 ARP 86 [0 ffffffff 3 806] ------- [REQUEST 3/3 0/2]
r 0.021789702 _2_ MAC  --- 0 ARP 28 [0 ffffffff 3 806] ------- [REQUEST 3/3 0/2]
r 0.021789702 _4_ MAC  --- 0 ARP 28 [0 ffffffff 3 806] ------- [REQUEST 3/3 0/2]
s 0.022324702 _2_ MAC  --- 0 RTS 44 [52e 3 2 0] 
r 0.022677368 _3_ MAC  --- 0 RTS 44 [52e 3 2 0] 
s 0.022687368 _3_ MAC  --- 0 CTS 38 [3f4 2 0 0] 
r 0.022992035 _2_ MAC  --- 0 CTS 38 [3f4 2 0 0] 
s 0.023002035 _2_ MAC  --- 0 ARP 86 [13a 3 2 806] ------- [REPLY 2/2 3/3]
r 0.023690702 _3_ MAC  --- 0 ARP 28 [13a 3 2 806] ------- [REPLY 2/2 3/3]
s 0.023700702 _3_ MAC  --- 0 ACK 38 [0 2 0 0] 
r 0.024005368 _2_ MAC  --- 0 ACK 38 [0 2 0 0] 
s 0.024394702 _3_ MAC  --- 0 RTS 44 [5ae 2 3 0] 
r 0.024747368 _2_ MAC  --- 0 RTS 44 [5ae 2 3 0] 
s 0.024757368 _2_ MAC  --- 0 CTS 38 [474 3 0 0] 
r 0.025062035 _3_ MAC  --- 0 CTS 38 [474 3 0 0] 
s 0.025072035 _3_ MAC  --- 0 AODV 102 [13a 2 3 800] ------- [4:255 0:255 29 2] [0x4 2 [4 4] 10.000000] (REPLY)
r 0.025888702 _2_ MAC  --- 0 AODV 44 [13a 2 3 800] ------- [4:255 0:255 29 2] [0x4 2 [4 4] 10.000000] (REPLY)
s 0.025898702 _2_ MAC  --- 0 ACK 38 [0 3 0 0] 
r 0.025913702 _2_ RTR  --- 0 AODV 44 [13a 2 3 800] ------- [4:255 0:255 29 2] [0x4 2 [4 4] 10.000000] (REPLY)
f 0.025913702 _2_ RTR  --- 0 AODV 44 [13a 2 3 800] ------- [4:255 0:255 28 1] [0x4 3 [4 4] 10.000000] (REPLY)
r 0.026203368 _3_ MAC  --- 0 ACK 38 [0 3 0 0] 
s 0.026452702 _2_ MAC  --- 0 ARP 86 [0 ffffffff 2 806] ------- [REQUEST 2/2 0/1]
r 0.027141368 _1_ MAC  --- 0 ARP 28 [0 ffffffff 2 806] ------- [REQUEST 2/2 0/1]
r 0.027141368 _3_ MAC  --- 0 ARP 28 [0 ffffffff 2 806] ------- [REQUEST 2/2 0/1]
s 0.027436368 _1_ MAC  --- 0 RTS 44 [52e 2 1 0] 
r 0.027789035 _2_ MAC  --- 0 RTS 44 [52e 2 1 0] 
s 0.027799035 _2_ MAC  --- 0 CTS 38 [3f4 1 0 0] 
r 0.028103702 _1_ MAC  --- 0 CTS 38 [3f4 1 0 0] 
s 0.028113702 _1_ MAC  --- 0 ARP 86 [13a 2 1 806] ------- [REPLY 1/1 2/2]
r 0.028802368 _2_ MAC  --- 0 ARP 28 [13a 2 1 806] ------- [REPLY 1/1 2/2]
s 0.028812368 _2_ MAC  --- 0 ACK 38 [0 1 0 0] 
r 0.029117035 _1_ MAC  --- 0 ACK 38 [0 1 0 0] 
s 0.029606368 _2_ MAC  --- 0 RTS 44 [5ae 1 2 0] 
r 0.029959035 _1_ MAC  --- 0 RTS 44 [5ae 1 2 0] 
s 0.029969035 _1_ MAC  --- 0 CTS 38 [474 2 0 0] 
r 0.030273702 _2_ MAC  --- 0 CTS 38 [474 2 0 0] 
s 0.030283702 _2_ MAC  --- 0 AODV 102 [13a 1 2 800] ------- [4:255 0:255 28 1] [0x4 3 [4 4] 10.000000] (REPLY)
r 0.031100368 _1_ MAC  --- 0 AODV 44 [13a 1 2 800] ------- [4:255 0:255 28 1] [0x4 3 [4 4] 10.000000] (REPLY)
s 0.031110368 _1_ MAC  --- 0 ACK 38 [0 2 0 0] 
r 0.031125368 _1_ RTR  --- 0 AODV 44 [13a 1 2 800] ------- [4:255 0:255 28 1] [0x4 3 [4 4] 10.000000] (REPLY)
f 0.031125368 _1_ RTR  --- 0 AODV 44 [13a 1 2 800] ------- [4:255 0:255 27 0] [0x4 4 [4 4] 10.000000] (REPLY)
r 0.031415035 _2_ MAC  --- 0 ACK 38 [0 2 0 0] 
s 0.032044368 _1_ MAC  --- 0 ARP 86 [0 ffffffff 1 806] ------- [REQUEST 1/1 0/0]
r 0.032733035 _2_ MAC  --- 0 ARP 28 [0 ffffffff 1 806] ------- [REQUEST 1/1 0/0]
r 0.032733113 _0_ MAC  --- 0 ARP 28 [0 ffffffff 1 806] ------- [REQUEST 1/1 0/0]
s 0.033148113 _0_ MAC  --- 0 RTS 44 [52e 1 0 0] 
r 0.033500858 _1_ MAC  --- 0 RTS 44 [52e 1 0 0] 
s 0.033510858 _1_ MAC  --- 0 CTS 38 [3f4 0 0 0] 
r 0.033815603 _0_ MAC  --- 0 CTS 38 [3f4 0 0 0] 
s 0.033825603 _0_ MAC  --- 0 ARP 86 [13a 1 0 806] ------- [REPLY 0/0 1/1]
r 0.034514348 _1_ MAC  --- 0 ARP 28 [13a 1 0 806] ------- [REPLY 0/0 1/1]
s 0.034524348 _1_ MAC  --- 0 ACK 38 [0 0 0 0] 
r 0.034829093 _0_ MAC  --- 0 ACK 38 [0 0 0 0] 
s 0.035058348 _1_ MAC  --- 0 RTS 44 [5ae 0 1 0] 
r 0.035411093 _0_ MAC  --- 0 RTS 44 [5ae 0 1 0] 
s 0.035421093 _0_ MAC  --- 0 CTS 38 [474 1 0 0] 
r 0.035725837 _1_ MAC  --- 0 CTS 38 [474 1 0 0] 
s 0.035735837 _1_ MAC  --- 0 AODV 102 [13a 0 1 800] ------- [4:255 0:255 27 0] [0x4 4 [4 4] 10.000000] (REPLY)
r 0.036552582 _0_ MAC  --- 0 AODV 44 [13a 0 1 800] ------- [4:255 0:255 27 0] [0x4 4 [4 4] 10.000000] (REPLY)
s 0.036562582 _0_ MAC  --- 0 ACK 38 [0 1 0 0] 
r 0.036577582 _0_ RTR  --- 0 AODV 44 [13a 0 1 800] ------- [4:255 0:255 27 0] [0x4 4 [4 4] 10.000000] (REPLY)
s 0.036577582 _0_ RTR  --- 0 udp 520 [0 0 0 0] ------- [0:0 4:0 30 1] 
r 0.036867326 _1_ MAC  --- 0 ACK 38 [0 1 0 0] 
s 0.037216582 _0_ MAC  --- 0 RTS 44 [148e 1 0 0] 
r 0.037569326 _1_ MAC  --- 0 RTS 44 [148e 1 0 0] 
s 0.037579326 _1_ MAC  --- 0 CTS 38 [1354 0 0 0] 
r 0.037884070 _0_ MAC  --- 0 CTS 38 [1354 0 0 0] 
s 0.037894070 _0_ MAC  --- 0 udp 578 [13a 1 0 800] ------- [0:0 4:0 30 1] 
r 0.042518814 _1_ MAC  --- 0 udp 520 [13a 1 0 800] ------- [0:0 4:0 30 1] 
s 0.042528814 _1_ MAC  --- 0 ACK 38 [0 0 0 0] 
r 0.042543814 _1_ RTR  --- 0 udp 520 [13a 1 0 800] ------- [0:0 4:0 30 1] 
f 0.042543814 _1_ RTR  --- 0 udp 520 [13a 1 0 800] ------- [0:0 4:0 29 2] 
r 0.042833558 _0_ MAC  --- 0 ACK 38 [0 0 0 0] 
s 0.042962814 _1_ MAC  --- 0 RTS 44 [148e 2 1 0] 
r 0.043315481 _2_ MAC  --- 0 RTS 44 [148e 2 1 0] 
s 0.043325481 _2_ MAC  --- 0 CTS 38 [1354 1 0 0] 
r 0.043630148 _1_ MAC  --- 0 CTS 38 [1354 1 0 0] 
s 0.043640148 _1_ MAC  --- 0 udp 578 [13a 2 1 800] ------- [0:0 4:0 29 2] 
s 0.046577582 _0_ RTR  --- 1 udp 520 [0 0 0 0] ------- [0:0 4:0 30 1] 
r 0.048264814 _2_ MAC  --- 0 udp 520 [13a 2 1 800] ------- [0:0 4:0 29 2] 
s 0.048274814 _2_ MAC  --- 0 ACK 38 [0 1 0 0] 
r 0.048289814 _2_ RTR  --- 0 udp 520 [13a 2 1 800] ------- [0:0 4:0 29 2] 
f 0.048289814 _2_ RTR  --- 0 udp 520 [13a 2 1 800] ------- [0:0 4:0 28 3] 
r 0.048579481 _1_ MAC  --- 0 ACK 38 [0 1 0 0] 
s 0.048708814 _2_ MAC  --- 0 RTS 44 [148e 3 2 0] 
r 0.049061481 _3_ MAC  --- 0 RTS 44 [148e 3 2 0] 
s 0.049071481 _3_ MAC  --- 0 CTS 38 [1354 2 0 0] 
r 0.049376148 _2_ MAC  --- 0 CTS 38 [1354 2 0 0] 
s 0.049386148 _2_ MAC  --- 0 udp 578 [13a 3 2 800] ------- [0:0 4:0 28 3] 
r 0.054010814 _3_ MAC  --- 0 udp 520 [13a 3 2 800] ------- [0:0 4:0 28 3] 
s 0.054020814 _3_ MAC  --- 0 ACK 38 [0 2 0 0] 
r 0.054035814 _3_ RTR  --- 0 udp 520 [13a 3 2 800] ------- [0:0 4:0 28 3] 
f 0.054035814 _3_ RTR  --- 0 udp 520 [13a 3 2 800] ------- [0:0 4:0 27 4] 
r 0.054325481 _2_ MAC  --- 0 ACK 38 [0 2 0 0] 
s 0.054505518 _0_ MAC  --- 0 RTS 44 [148e 1 0 0] 
s 0.054574814 _3_ MAC  --- 0 RTS 44 [148e 4 3 0] 
r 0.054858260 _1_ MAC  --- 0 RTS 44 [148e 1 0 0] 
r 0.054927481 _4_ MAC  --- 0 RTS 44 [148e 4 3 0] 
s 0.054937481 _4_ MAC  --- 0 CTS 38 [1354 3 0 0] 
r 0.055242148 _3_ MAC  --- 0 CTS 38 [1354 3 0 0] 
s 0.055252148 _3_ MAC  --- 0 udp 578 [13a 4 3 800] ------- [0:0 4:0 27 4] 
s 0.055785518 _0_ MAC  --- 0 RTS 44 [148e 1 0 0] 
D 0.055786260 _1_ MAC  COL 0 RTS 44 [148e 1 0 0] 
s 0.058925518 _0_ MAC  --- 0 RTS 44 [148e 1 0 0] 
D 0.058926259 _1_ MAC  COL 0 RTS 44 [148e 1 0 0] 
r 0.059876814 _4_ MAC  --- 0 udp 520 [13a 4 3 800] ------- [0:0 4:0 27 4] 
s 0.059886814 _4_ MAC  --- 0 ACK 38 [0 3 0 0] 
r 0.059901814 _4_ AGT  --- 0 udp 520 [13a 4 3 800] ------- [0:0 4:0 27 4] 
v 0.05990181441620137 eval {set sim_annotation {4 received {Xpos=108.320000}}}
r 0.060191481 _3_ MAC  --- 0 ACK 38 [0 3 0 0] 
s 0.063165518 _0_ MAC  --- 0 RTS 44 [148e 1 0 0] 
r 0.063518259 _1_ MAC  --- 0 RTS 44 [148e 1 0 0] 
s 0.063528259 _1_ MAC  --- 0 CTS 38 [1354 0 0 0] 
r 0.063832999 _0_ MAC  --- 0 CTS 38 [1354 0 0 0] 
s 0.063842999 _0_ MAC  --- 1 udp 578 [13a 1 0 800] ------- [0:0 4:0 30 1] 
r 0.068467739 _1_ MAC  --- 1 udp 520 [13a 1 0 800] ------- [0:0 4:0 30 1] 
s 0.068477739 _1_ MAC  --- 0 ACK 38 [0 0 0 0] 
r 0.068492739 _1_ RTR  --- 1 udp 520 [13a 1 0 800] ------- [0:0 4:0 30 1] 
f 0.068492739 _1_ RTR  --- 1 udp 520 [13a 1 0 800] ------- [0:0 4:0 29 2] 
r 0.068782479 _0_ MAC  --- 0 ACK 38 [0 0 0 0] 
s 0.068891739 _1_ MAC  --- 0 RTS 44 [148e 2 1 0] 
r 0.069244406 _2_ MAC  --- 0 RTS 44 [148e 2 1 0] 
s 0.069254406 _2_ MAC  --- 0 CTS 38 [1354 1 0 0] 
r 0.069559073 _1_ MAC  --- 0 CTS 38 [1354 1 0 0] 
s 0.069569073 _1_ MAC  --- 1 udp 578 [13a 2 1 800] ------- [0:0 4:0 29 2] 
r 0.074193739 _2_ MAC  --- 1 udp 520 [13a 2 1 800] ------- [0:0 4:0 29 2] 
s 0.074203739 _2_ MAC  --- 0 ACK 38 [0 1 0 0] 
r 0.074218739 _2_ RTR  --- 1 udp 520 [13a 2 1 800] ------- [0:0 4:0 29 2] 
f 0.074218739 _2_ RTR  --- 1 udp 520 [13a 2 1 800] ------- [0:0 4:0 28 3] 
r 0.074508406 _1_ MAC  --- 0 ACK 38 [0 1 0 0] 
s 0.074897739 _2_ MAC  --- 0 RTS 44 [148e 3 2 0] 
r 0.075250406 _3_ MAC  --- 0 RTS 44 [148e 3 2 0] 
s 0.075260406 _3_ MAC  --- 0 CTS 38 [1354 2 0 0] 
r 0.075565073 _2_ MAC  --- 0 CTS 38 [1354 2 0 0] 
s 0.075575073 _2_ MAC  --- 1 udp 578 [13a 3 2 800] ------- [0:0 4:0 28 3] 
r 0.080199739 _3_ MAC  --- 1 udp 520 [13a 3 2 800] ------- [0:0 4:0 28 3] 
s 0.080209739 _3_ MAC  --- 0 ACK 38 [0 2 0 0] 
r 0.080224739 _3_ RTR  --- 1 udp 520 [13a 3 2 800] ------- [0:0 4:0 28 3] 
f 0.080224739 _3_ RTR  --- 1 udp 520 [13a 3 2 800] ------- [0:0 4:0 27 4] 
r 0.080514406 _2_ MAC  --- 0 ACK 38 [0 2 0 0] 
s 0.080843739 _3_ MAC  --- 0 RTS 44 [148e 4 3 0] 
r 0.081196406 _4_ MAC  --- 0 RTS 44 [148e 4 3 0] 
s 0.081206406 _4_ MAC  --- 0 CTS 38 [1354 3 0 0] 
r 0.081511073 _3_ MAC  --- 0 CTS 38 [1354 3 0 0] 
s 0.081521073 _3_ MAC  --- 1 udp 578 [13a 4 3 800] ------- [0:0 4:0 27 4] 
r 0.086145739 _4_ MAC  --- 1 udp 520 [13a 4 3 800] ------- [0:0 4:0 27 4] 
s 0.086155739 _4_ MAC  --- 0 ACK 38 [0 3 0 0] 
r 0.086170739 _4_ AGT  --- 1 udp 520 [13a 4 3 800] ------- [0:0 4:0 27 4] 
v 0.086170739341543845 eval {set sim_annotation {4 received {Ypos=500.000000}}}
r 0.086460406 _3_ MAC  --- 0 ACK 38 [0 3 0 0] 
s 0.100000000 _0_ AGT  --- 2 udp 500 [0 0 0 0] ------- [0:0 4:0 32 0] 
r 0.100000000 _0_ RTR  --- 2 udp 500 [0 0 0 0] ------- [0:0 4:0 32 0] 
s 0.100000000 _0_ AGT  --- 3 udp 500 [0 0 0 0] ------- [0:0 4:0 32 0] 
r 0.100000000 _0_ RTR  --- 3 udp 500 [0 0 0 0] ------- [0:0 4:0 32 0] 
s 0.100000000 _0_ AGT  --- 4 udp 500 [0 0 0 0] ------- [0:0 4:0 32 0] 
r 0.100000000 _0_ RTR  --- 4 udp 500 [0 0 0 0] ------- [0:0 4:0 32 0] 
s 0.100000000 _0_ AGT  --- 5 udp 500 [0 0 0 0] ------- [0:0 4:0 32 0] 
r 0.100000000 _0_ RTR  --- 5 udp 500 [0 0 0 0] ------- [0:0 4:0 32 0] 
s 0.100000000 _0_ RTR  --- 2 udp 520 [0 0 0 0] ------- [0:0 4:0 30 1] 
s 0.100000000 _0_ RTR  --- 3 udp 520 [0 0 0 0] ------- [0:0 4:0 30 1] 
s 0.100000000 _0_ RTR  --- 4 udp 520 [0 0 0 0] ------- [0:0 4:0 30 1] 
s 0.100000000 _0_ RTR  --- 5 udp 520 [0 0 0 0] ------- [0:0 4:0 30 1] 
s 0.100555000 _0_ MAC  --- 0 RTS 44 [148e 1 0 0] 
r 0.100907735 _1_ MAC  --- 0 RTS 44 [148e 1 0 0] 
s 0.100917735 _1_ MAC  --- 0 CTS 38 [1354 0 0 0] 
r 0.101222470 _0_ MAC  --- 0 CTS 38 [1354 0 0 0] 
s 0.101232470 _0_ MAC  --- 2 udp 578 [13a 1 0 800] ------- [0:0 4:0 30 1] 
r 0.105857205 _1_ MAC  --- 2 udp 520 [13a 1 0 800] ------- [0:0 4:0 30 1] 
s 0.105867205 _1_ MAC  --- 0 ACK 38 [0 0 0 0] 
r 0.105882205 _1_ RTR  --- 2 udp 520 [13a 1 0 800] ------- [0:0 4:0 30 1] 
f 0.105882205 _1_ RTR  --- 2 udp 520 [13a 1 0 800] ------- [0:0 4:0 29 2] 
r 0.106171939 _0_ MAC  --- 0 ACK 38 [0 0 0 0] 
s 0.106221205 _1_ MAC  --- 0 RTS 44 [148e 2 1 0] 
r 0.106573871 _2_ MAC  --- 0 RTS 44 [148e 2 1 0] 
s 0.106583871 _2_ MAC  --- 0 CTS 38 [1354 1 0 0] 
r 0.106888538 _1_ MAC  --- 0 CTS 38 [1354 1 0 0] 
s 0.106898538 _1_ MAC  --- 2 udp 578 [13a 2 1 800] ------- [0:0 4:0 29 2] 
s 0.110000000 _0_ AGT  --- 6 udp 500 [0 0 0 0] ------- [0:0 4:0 32 0] 
r 0.110000000 _0_ RTR  --- 6 udp 500 [0 0 0 0] ------- [0:0 4:0 32 0] 
s 0.110000000 _0_ AGT  --- 7 udp 500 [0 0 0 0] ------- [0:0 4:0 32 0] 
r 0.110000000 _0_ RTR  --- 7 udp 500 [0 0 0 0] ------- [0:0 4:0 32 0] 
s 0.110000000 _0_ RTR  --- 6 udp 520 [0 0 0 0] ------- [0:0 4:0 30 1] 
s 0.110000000 _0_ RTR  --- 7 udp 520 [0 0 0 0] ------- [0:0 4:0 30 1] 
r 0.111523205 _2_ MAC  --- 2 udp 520 [13a 2 1 800] ------- [0:0 4:0 29 2] 
s 0.111533205 _2_ MAC  --- 0 ACK 38 [0 1 0 0] 
r 0.111548205 _2_ RTR  --- 2 udp 520 [13a 2 1 800] ------- [0:0 4:0 29 2] 
f 0.111548205 _2_ RTR  --- 2 udp 520 [13a 2 1 800] ------- [0:0 4:0 28 3] 
r 0.111837871 _1_ MAC  --- 0 ACK 38 [0 1 0 0] 
s 0.112207205 _2_ MAC  --- 0 RTS 44 [148e 3 2 0] 
r 0.112559871 _3_ MAC  --- 0 RTS 44 [148e 3 2 0] 
s 0.112569871 _3_ MAC  --- 0 CTS 38 [1354 2 0 0] 
r 0.112874538 _2_ MAC  --- 0 CTS 38 [1354 2 0 0] 
s 0.112884538 _2_ MAC  --- 2 udp 578 [13a 3 2 800] ------- [0:0 4:0 28 3] 
r 0.117509205 _3_ MAC  --- 2 udp 520 [13a 3 2 800] ------- [0:0 4:0 28 3] 
s 0.117519205 _3_ MAC  --- 0 ACK 38 [0 2 0 0] 
r 0.117534205 _3_ RTR  --- 2 udp 520 [13a 3 2 800] ------- [0:0 4:0 28 3] 
f 0.117534205 _3_ RTR  --- 2 udp 520 [13a 3 2 800] ------- [0:0 4:0 27 4] 
r 0.117823871 _2_ MAC  --- 0 ACK 38 [0 2 0 0] 
s 0.118093205 _3_ MAC  --- 0 RTS 44 [148e 4 3 0] 
s 0.118143898 _0_ MAC  --- 0 RTS 44 [148e 1 0 0] 
r 0.118445871 _4_ MAC  --- 0 RTS 44 [148e 4 3 0] 
s 0.118455871 _4_ MAC  --- 0 CTS 38 [1354 3 0 0] 
D 0.118496630 _1_ MAC  COL 0 RTS 44 [148e 1 0 0] 
r 0.118760538 _3_ MAC  --- 0 CTS 38 [1354 3 0 0] 
s 0.118770538 _3_ MAC  --- 2 udp 578 [13a 4 3 800] ------- [0:0 4:0 27 4] 
s 0.119243898 _0_ MAC  --- 0 RTS 44 [148e 1 0 0] 
D 0.119244630 _1_ MAC  COL 0 RTS 44 [148e 1 0 0] 
s 0.120000000 _0_ AGT  --- 8 udp 500 [0 0 0 0] ------- [0:0 4:0 32 0] 
r 0.120000000 _0_ RTR  --- 8 udp 500 [0 0 0 0] ------- [0:0 4:0 32 0] 
s 0.120000000 _0_ AGT  --- 9 udp 500 [0 0 0 0] ------- [0:0 4:0 32 0] 
r 0.120000000 _0_ RTR  --- 9 udp 500 [0 0 0 0] ------- [0:0 4:0 32 0] 
s 0.120000000 _0_ RTR  --- 8 udp 520 [0 0 0 0] ------- [0:0 4:0 30 1] 
s 0.120000000 _0_ RTR  --- 9 udp 520 [0 0 0 0] ------- [0:0 4:0 30 1] 
s 0.121003898 _0_ MAC  --- 0 RTS 44 [148e 1 0 0] 
D 0.121004630 _1_ MAC  COL 0 RTS 44 [148e 1 0 0] 
r 0.123395205 _4_ MAC  --- 2 udp 520 [13a 4 3 800] ------- [0:0 4:0 27 4] 
s 0.123405205 _4_ MAC  --- 0 ACK 38 [0 3 0 0] 
r 0.123420205 _4_ AGT  --- 2 udp 520 [13a 4 3 800] ------- [0:0 4:0 27 4] 
v 0.1234202045255287 eval {set sim_annotation {4 received {Xpos=108.640000}}}
r 0.123709871 _3_ MAC  --- 0 ACK 38 [0 3 0 0] 
s 0.123843898 _0_ MAC  --- 0 RTS 44 [148e 1 0 0] 
r 0.124196629 _1_ MAC  --- 0 RTS 44 [148e 1 0 0] 
s 0.124206629 _1_ MAC  --- 0 CTS 38 [1354 0 0 0] 
r 0.124511361 _0_ MAC  --- 0 CTS 38 [1354 0 0 0] 
s 0.124521361 _0_ MAC  --- 3 udp 578 [13a 1 0 800] ------- [0:0 4:0 30 1] 
r 0.129146092 _1_ MAC  --- 3 udp 520 [13a 1 0 800] ------- [0:0 4:0 30 1] 
s 0.129156092 _1_ MAC  --- 0 ACK 38 [0 0 0 0] 
r 0.129171092 _1_ RTR  --- 3 udp 520 [13a 1 0 800] ------- [0:0 4:0 30 1] 
f 0.129171092 _1_ RTR  --- 3 udp 520 [13a 1 0 800] ------- [0:0 4:0 29 2] 
r 0.129460823 _0_ MAC  --- 0 ACK 38 [0 0 0 0] 
s 0.129530823 _0_ MAC  --- 0 RTS 44 [148e 1 0 0] 
r 0.129883553 _1_ MAC  --- 0 RTS 44 [148e 1 0 0] 
s 0.129893553 _1_ MAC  --- 0 CTS 38 [1354 0 0 0] 
s 0.130000000 _0_ AGT  --- 10 udp 500 [0 0 0 0] ------- [0:0 4:0 32 0] 
r 0.130000000 _0_ RTR  --- 10 udp 500 [0 0 0 0] ------- [0:0 4:0 32 0] 
s 0.130000000 _0_ AGT  --- 11 udp 500 [0 0 0 0] ------- [0:0 4:0 32 0] 
r 0.130000000 _0_ RTR  --- 11 udp 500 [0 0 0 0] ------- [0:0 4:0 32 0] 
s 0.130000000 _0_ RTR  --- 10 udp 520 [0 0 0 0] ------- [0:0 4:0 30 1] 
s 0.130000000 _0_ RTR  --- 11 udp 520 [0 0 0 0] ------- [0:0 4:0 30 1] 
r 0.130198284 _0_ MAC  --- 0 CTS 38 [1354 0 0 0] 
s 0.130208284 _0_ MAC  --- 4 udp 578 [13a 1 0 800] ------- [0:0 4:0 30 1] 
r 0.134833015 _1_ MAC  --- 4 udp 520 [13a 1 0 800] ------- [0:0 4:0 30 1] 
s 0.134843015 _1_ MAC  --- 0 ACK 38 [0 0 0 0] 
r 0.134858015 _1_ RTR  --- 4 udp 520 [13a 1 0 800] ------- [0:0 4:0 30 1] 
f 0.134858015 _1_ RTR  --- 4 udp 520 [13a 1 0 800] ------- [0:0 4:0 29 2] 
r 0.135147744 _0_ MAC  --- 0 ACK 38 [0 0 0 0] 
s 0.135457015 _1_ MAC  --- 0 RTS 44 [148e 2 1 0] 
r 0.135809681 _2_ MAC  --- 0 RTS 44 [148e 2 1 0] 
s 0.135819681 _2_ MAC  --- 0 CTS 38 [1354 1 0 0] 
r 0.136124348 _1_ MAC  --- 0 CTS 38 [1354 1 0 0] 
s 0.136134348 _1_ MAC  --- 3 udp 578 [13a 2 1 800] ------- [0:0 4:0 29 2] 
s 0.140000000 _0_ AGT  --- 12 udp 500 [0 0 0 0] ------- [0:0 4:0 32 0] 
r 0.140000000 _0_ RTR  --- 12 udp 500 [0 0 0 0] ------- [0:0 4:0 32 0] 
s 0.140000000 _0_ AGT  --- 13 udp 500 [0 0 0 0] ------- [0:0 4:0 32 0] 
r 0.140000000 _0_ RTR  --- 13 udp 500 [0 0 0 0] ------- [0:0 4:0 32 0] 
s 0.140000000 _0_ RTR  --- 12 udp 520 [0 0 0 0] ------- [0:0 4:0 30 1] 
s 0.140000000 _0_ RTR  --- 13 udp 520 [0 0 0 0] ------- [0:0 4:0 30 1] 
r 0.140759015 _2_ MAC  --- 3 udp 520 [13a 2 1 800] ------- [0:0 4:0 29 2] 
s 0.140769015 _2_ MAC  --- 0 ACK 38 [0 1 0 0] 
r 0.140784015 _2_ RTR  --- 3 udp 520 [13a 2 1 800] ------- [0:0 4:0 29 2] 
f 0.140784015 _2_ RTR  --- 3 udp 520 [13a 2 1 800] ------- [0:0 4:0 28 3] 
r 0.141073681 _1_ MAC  --- 0 ACK 38 [0 1 0 0] 
s 0.141243681 _1_ MAC  --- 0 RTS 44 [148e 2 1 0] 
r 0.141596348 _2_ MAC  --- 0 RTS 44 [148e 2 1 0] 
s 0.141606348 _2_ MAC  --- 0 CTS 38 [1354 1 0 0] 
r 0.141911015 _1_ MAC  --- 0 CTS 38 [1354 1 0 0] 
s 0.141921015 _1_ MAC  --- 4 udp 578 [13a 2 1 800] ------- [0:0 4:0 29 2] 
r 0.146545681 _2_ MAC  --- 4 udp 520 [13a 2 1 800] ------- [0:0 4:0 29 2] 
s 0.146555681 _2_ MAC  --- 0 ACK 38 [0 1 0 0] 
r 0.146570681 _2_ RTR  --- 4 udp 520 [13a 2 1 800] ------- [0:0 4:0 29 2] 
f 0.146570681 _2_ RTR  --- 4 udp 520 [13a 2 1 800] ------- [0:0 4:0 28 3] 
r 0.146860348 _1_ MAC  --- 0 ACK 38 [0 1 0 0] 
s 0.147029681 _2_ MAC  --- 0 RTS 44 [148e 3 2 0] 
r 0.147382348 _3_ MAC  --- 0 RTS 44 [148e 3 2 0] 
s 0.147392348 _3_ MAC  --- 0 CTS 38 [1354 2 0 0] 
r 0.147697015 _2_ MAC  --- 0 CTS 38 [1354 2 0 0] 
s 0.147707015 _2_ MAC  --- 3 udp 578 [13a 3 2 800] ------- [0:0 4:0 28 3] 
s 0.150000000 _0_ AGT  --- 14 udp 500 [0 0 0 0] ------- [0:0 4:0 32 0] 
r 0.150000000 _0_ RTR  --- 14 udp 500 [0 0 0 0] ------- [0:0 4:0 32 0] 
s 0.150000000 _0_ AGT  --- 15 udp 500 [0 0 0 0] ------- [0:0 4:0 32 0] 
r 0.150000000 _0_ RTR  --- 15 udp 500 [0 0 0 0] ------- [0:0 4:0 32 0] 
s 0.150000000 _0_ RTR  --- 14 udp 520 [0 0 0 0] ------- [0:0 4:0 30 1] 
s 0.150000000 _0_ RTR  --- 15 udp 520 [0 0 0 0] ------- [0:0 4:0 30 1] 
r 0.152331681 _3_ MAC  --- 3 udp 520 [13a 3 2 800] ------- [0:0 4:0 28 3] 
s 0.152341681 _3_ MAC  --- 0 ACK 38 [0 2 0 0] 
r 0.152356681 _3_ RTR  --- 3 udp 520 [13a 3 2 800] ------- [0:0 4:0 28 3] 
f 0.152356681 _3_ RTR  --- 3 udp 520 [13a 3 2 800] ------- [0:0 4:0 27 4] 
r 0.152646348 _2_ MAC  --- 0 ACK 38 [0 2 0 0] 
s 0.152735681 _3_ MAC  --- 0 RTS 44 [148e 4 3 0] 
s 0.152986369 _0_ MAC  --- 0 RTS 44 [148e 1 0 0] 
r 0.153088348 _4_ MAC  --- 0 RTS 44 [148e 4 3 0] 
s 0.153098348 _4_ MAC  --- 0 CTS 38 [1354 3 0 0] 
D 0.153339096 _1_ MAC  COL 0 RTS 44 [148e 1 0 0] 
r 0.153403015 _3_ MAC  --- 0 CTS 38 [1354 3 0 0] 
s 0.153413015 _3_ MAC  --- 3 udp 578 [13a 4 3 800] ------- [0:0 4:0 27 4] 
s 0.154826369 _0_ MAC  --- 0 RTS 44 [148e 1 0 0] 
D 0.154827096 _1_ MAC  COL 0 RTS 44 [148e 1 0 0] 
s 0.155986369 _0_ MAC  --- 0 RTS 44 [148e 1 0 0] 
D 0.155987096 _1_ MAC  COL 0 RTS 44 [148e 1 0 0] 
s 0.157846369 _0_ MAC  --- 0 RTS 44 [148e 1 0 0] 
r 0.158037681 _4_ MAC  --- 3 udp 520 [13a 4 3 800] ------- [0:0 4:0 27 4] 
s 0.158047681 _4_ MAC  --- 0 ACK 38 [0 3 0 0] 
r 0.158062681 _4_ AGT  --- 3 udp 520 [13a 4 3 800] ------- [0:0 4:0 27 4] 
v 0.1580626812003737 eval {set sim_annotation {4 received {Ypos=500.000000}}}
D 0.158199096 _1_ MAC  COL 0 RTS 44 [148e 1 0 0] 
r 0.158352348 _3_ MAC  --- 0 ACK 38 [0 3 0 0] 
s 0.159187015 _2_ MAC  --- 0 RTS 44 [148e 3 2 0] 
r 0.159539681 _3_ MAC  --- 0 RTS 44 [148e 3 2 0] 
s 0.159549681 _3_ MAC  --- 0 CTS 38 [1354 2 0 0] 
r 0.159854348 _2_ MAC  --- 0 CTS 38 [1354 2 0 0] 
s 0.159864348 _2_ MAC  --- 4 udp 578 [13a 3 2 800] ------- [0:0 4:0 28 3] 
s 0.160000000 _0_ AGT  --- 16 udp 500 [0 0 0 0] ------- [0:0 4:0 32 0] 
r 0.160000000 _0_ RTR  --- 16 udp 500 [0 0 0 0] ------- [0:0 4:0 32 0] 
s 0.160000000 _0_ AGT  --- 17 udp 500 [0 0 0 0] ------- [0:0 4:0 32 0] 
r 0.160000000 _0_ RTR  --- 17 udp 500 [0 0 0 0] ------- [0:0 4:0 32 0] 
s 0.160000000 _0_ RTR  --- 16 udp 520 [0 0 0 0] ------- [0:0 4:0 30 1] 
s 0.160000000 _0_ RTR  --- 17 udp 520 [0 0 0 0] ------- [0:0 4:0 30 1] 
r 0.164489015 _3_ MAC  --- 4 udp 520 [13a 3 2 800] ------- [0:0 4:0 28 3] 
s 0.164499015 _3_ MAC  --- 0 ACK 38 [0 2 0 0] 
r 0.164514015 _3_ RTR  --- 4 udp 520 [13a 3 2 800] ------- [0:0 4:0 28 3] 
f 0.164514015 _3_ RTR  --- 4 udp 520 [13a 3 2 800] ------- [0:0 4:0 27 4] 
r 0.164803681 _2_ MAC  --- 0 ACK 38 [0 2 0 0] 
s 0.165053015 _3_ MAC  --- 0 RTS 44 [148e 4 3 0] 
r 0.165405681 _4_ MAC  --- 0 RTS 44 [148e 4 3 0] 
s 0.165415681 _4_ MAC  --- 0 CTS 38 [1354 3 0 0] 
r 0.165720348 _3_ MAC  --- 0 CTS 38 [1354 3 0 0] 
s 0.165730348 _3_ MAC  --- 4 udp 578 [13a 4 3 800] ------- [0:0 4:0 27 4] 
s 0.166043700 _0_ MAC  --- 0 RTS 44 [148e 1 0 0] 
D 0.166044426 _1_ MAC  COL 0 RTS 44 [148e 1 0 0] 
s 0.170000000 _0_ AGT  --- 18 udp 500 [0 0 0 0] ------- [0:0 4:0 32 0] 
r 0.170000000 _0_ RTR  --- 18 udp 500 [0 0 0 0] ------- [0:0 4:0 32 0] 
s 0.170000000 _0_ AGT  --- 19 udp 500 [0 0 0 0] ------- [0:0 4:0 32 0] 
r 0.170000000 _0_ RTR  --- 19 udp 500 [0 0 0 0] ------- [0:0 4:0 32 0] 
s 0.170000000 _0_ RTR  --- 18 udp 520 [0 0 0 0] ------- [0:0 4:0 30 1] 
s 0.170000000 _0_ RTR  --- 19 udp 520 [0 0 0 0] ------- [0:0 4:0 30 1] 
r 0.170355015 _4_ MAC  --- 4 udp 520 [13a 4 3 800] ------- [0:0 4:0 27 4] 
s 0.170365015 _4_ MAC  --- 0 ACK 38 [0 3 0 0] 
r 0.170380015 _4_ AGT  --- 4 udp 520 [13a 4 3 800] ------- [0:0 4:0 27 4] 
v 0.1703800145337071 eval {set sim_annotation {4 received {Xpos=111.520000}}}
r 0.170669681 _3_ MAC  --- 0 ACK 38 [0 3 0 0] 
s 0.180000000 _0_ AGT  --- 20 udp 500 [0 0 0 0] ------- [0:0 4:0 32 0] 
r 0.180000000 _0_ RTR  --- 20 udp 500 [0 0 0 0] ------- [0:0 4:0 32 0] 
s 0.180000000 _0_ AGT  --- 21 udp 500 [0 0 0 0] ------- [0:0 4:0 32 0] 
r 0.180000000 _0_ RTR  --- 21 udp 500 [0 0 0 0] ------- [0:0 4:0 32 0] 
s 0.180000000 _0_ RTR  --- 20 udp 520 [0 0 0 0] ------- [0:0 4:0 30 1] 
s 0.180000000 _0_ RTR  --- 21 udp 520 [0 0 0 0] ------- [0:0 4:0 30 1] 
s 0.181983700 _0_ MAC  --- 0 RTS 44 [148e 1 0 0] 
r 0.182336423 _1_ MAC  --- 0 RTS 44 [148e 1 0 0] 
s 0.182346423 _1_ MAC  --- 0 CTS 38 [1354 0 0 0] 
r 0.182651146 _0_ MAC  --- 0 CTS 38 [1354 0 0 0] 
s 0.182661146 _0_ MAC  --- 5 udp 578 [13a 1 0 800] ------- [0:0 4:0 30 1] 
r 0.187285869 _1_ MAC  --- 5 udp 520 [13a 1 0 800] ------- [0:0 4:0 30 1] 
s 0.187295869 _1_ MAC  --- 0 ACK 38 [0 0 0 0] 
r 0.187310869 _1_ RTR  --- 5 udp 520 [13a 1 0 800] ------- [0:0 4:0 30 1] 
f 0.187310869 _1_ RTR  --- 5 udp 520 [13a 1 0 800] ------- [0:0 4:0 29 2] 
r 0.187600591 _0_ MAC  --- 0 ACK 38 [0 0 0 0] 
s 0.187710591 _0_ MAC  --- 0 RTS 44 [148e 1 0 0] 
r 0.188063313 _1_ MAC  --- 0 RTS 44 [148e 1 0 0] 
s 0.188073313 _1_ MAC  --- 0 CTS 38 [1354 0 0 0] 
r 0.188378035 _0_ MAC  --- 0 CTS 38 [1354 0 0 0] 
s 0.188388035 _0_ MAC  --- 6 udp 578 [13a 1 0 800] ------- [0:0 4:0 30 1] 
s 0.190000000 _0_ AGT  --- 22 udp 500 [0 0 0 0] ------- [0:0 4:0 32 0] 
r 0.190000000 _0_ RTR  --- 22 udp 500 [0 0 0 0] ------- [0:0 4:0 32 0] 
s 0.190000000 _0_ AGT  --- 23 udp 500 [0 0 0 0] ------- [0:0 4:0 32 0] 
r 0.190000000 _0_ RTR  --- 23 udp 500 [0 0 0 0] ------- [0:0 4:0 32 0] 
s 0.190000000 _0_ RTR  --- 22 udp 520 [0 0 0 0] ------- [0:0 4:0 30 1] 
s 0.190000000 _0_ RTR  --- 23 udp 520 [0 0 0 0] ------- [0:0 4:0 30 1] 
r 0.193012757 _1_ MAC  --- 6 udp 520 [13a 1 0 800] ------- [0:0 4:0 30 1] 
s 0.193022757 _1_ MAC  --- 0 ACK 38 [0 0 0 0] 
r 0.193037757 _1_ RTR  --- 6 udp 520 [13a 1 0 800] ------- [0:0 4:0 30 1] 
f 0.193037757 _1_ RTR  --- 6 udp 520 [13a 1 0 800] ------- [0:0 4:0 29 2] 
r 0.193327478 _0_ MAC  --- 0 ACK 38 [0 0 0 0] 
s 0.193436757 _1_ MAC  --- 0 RTS 44 [148e 2 1 0] 
r 0.193789423 _2_ MAC  --- 0 RTS 44 [148e 2 1 0] 
s 0.193799423 _2_ MAC  --- 0 CTS 38 [1354 1 0 0] 
r 0.194104090 _1_ MAC  --- 0 CTS 38 [1354 1 0 0] 
s 0.194114090 _1_ MAC  --- 5 udp 578 [13a 2 1 800] ------- [0:0 4:0 29 2] 
r 0.198738757 _2_ MAC  --- 5 udp 520 [13a 2 1 800] ------- [0:0 4:0 29 2] 
s 0.198748757 _2_ MAC  --- 0 ACK 38 [0 1 0 0] 
r 0.198763757 _2_ RTR  --- 5 udp 520 [13a 2 1 800] ------- [0:0 4:0 29 2] 
f 0.198763757 _2_ RTR  --- 5 udp 520 [13a 2 1 800] ------- [0:0 4:0 28 3] 
r 0.199053423 _1_ MAC  --- 0 ACK 38 [0 1 0 0] 
s 0.199222757 _2_ MAC  --- 0 RTS 44 [148e 3 2 0] 
r 0.199575423 _3_ MAC  --- 0 RTS 44 [148e 3 2 0] 
s 0.199585423 _3_ MAC  --- 0 CTS 38 [1354 2 0 0] 
r 0.199890090 _2_ MAC  --- 0 CTS 38 [1354 2 0 0] 
s 0.199900090 _2_ MAC  --- 5 udp 578 [13a 3 2 800] ------- [0:0 4:0 28 3] 
s 0.200000000 _0_ AGT  --- 24 udp 500 [0 0 0 0] ------- [0:0 4:0 32 0] 
r 0.200000000 _0_ RTR  --- 24 udp 500 [0 0 0 0] ------- [0:0 4:0 32 0] 
s 0.200000000 _0_ AGT  --- 25 udp 500 [0 0 0 0] ------- [0:0 4:0 32 0] 
r 0.200000000 _0_ RTR  --- 25 udp 500 [0 0 0 0] ------- [0:0 4:0 32 0] 
s 0.200000000 _0_ AGT  --- 26 udp 500 [0 0 0 0] ------- [0:0 4:0 32 0] 
r 0.200000000 _0_ RTR  --- 26 udp 500 [0 0 0 0] ------- [0:0 4:0 32 0] 
s 0.200000000 _0_ AGT  --- 27 udp 500 [0 0 0 0] ------- [0:0 4:0 32 0] 
r 0.200000000 _0_ RTR  --- 27 udp 500 [0 0 0 0] ------- [0:0 4:0 32 0] 
s 0.200000000 _0_ RTR  --- 24 udp 520 [0 0 0 0] ------- [0:0 4:0 30 1] 
s 0.200000000 _0_ RTR  --- 25 udp 520 [0 0 0 0] ------- [0:0 4:0 30 1] 
s 0.200000000 _0_ RTR  --- 26 udp 520 [0 0 0 0] ------- [0:0 4:0 30 1] 
s 0.200000000 _0_ RTR  --- 27 udp 520 [0 0 0 0] ------- [0:0 4:0 30 1] 
r 0.204524757 _3_ MAC  --- 5 udp 520 [13a 3 2 800] ------- [0:0 4:0 28 3] 
s 0.204534757 _3_ MAC  --- 0 ACK 38 [0 2 0 0] 
r 0.204549757 _3_ RTR  --- 5 udp 520 [13a 3 2 800] ------- [0:0 4:0 28 3] 
f 0.204549757 _3_ RTR  --- 5 udp 520 [13a 3 2 800] ------- [0:0 4:0 27 4] 
r 0.204839423 _2_ MAC  --- 0 ACK 38 [0 2 0 0] 
s 0.205328757 _3_ MAC  --- 0 RTS 44 [148e 4 3 0] 
s 0.205479436 _0_ MAC  --- 0 RTS 44 [148e 1 0 0] 
r 0.205681423 _4_ MAC  --- 0 RTS 44 [148e 4 3 0] 
s 0.205691423 _4_ MAC  --- 0 CTS 38 [1354 3 0 0] 
D 0.205832156 _1_ MAC  COL 0 RTS 44 [148e 1 0 0] 
r 0.205996090 _3_ MAC  --- 0 CTS 38 [1354 3 0 0] 
s 0.206006090 _3_ MAC  --- 5 udp 578 [13a 4 3 800] ------- [0:0 4:0 27 4] 
s 0.207039436 _0_ MAC  --- 0 RTS 44 [148e 1 0 0] 