n -t * -s 0  -x 100 -y 500 -Z 0 -z 20  -v circle -c black
n -t * -s 1  -x 301 -y 399 -Z 0 -z 20  -v circle -c black
n -t * -s 2  -x 501 -y 399 -Z 0 -z 20  -v circle -c black
n -t * -s 3  -x 701 -y 399 -Z 0 -z 20  -v circle -c black
n -t * -s 4  -x 901 -y 399 -Z 0 -z 20  -v circle -c black
V -t * -v 1.0a5 -a 0
W -t * -x 1000 -y 600
A -t * -n 1 -p 0 -o 0x7fffffff -c 30 -a 1
A -t * -h 1 -m 1073741823 -s 0
n -t 0.000000 -s 0 -x 100.000000 -y 500.000000 -U 50.000000 -V 0.000000 -T 17.000000
+ -t 0.000000000 -s 0 -d -1 -p udp -e 500 -c 2 -a 0 -i 0 -k AGT 
- -t 0.000000000 -s 0 -d -1 -p udp -e 500 -c 2 -a 0 -i 0 -k AGT
h -t 0.000000000 -s 0 -d -1 -p udp -e 500 -c 2 -a 0 -i 0 -k AGT
+ -t 0.000000000 -s 0 -d -1 -p udp -e 500 -c 2 -a 0 -i 1 -k AGT 
- -t 0.000000000 -s 0 -d -1 -p udp -e 500 -c 2 -a 0 -i 1 -k AGT
h -t 0.000000000 -s 0 -d -1 -p udp -e 500 -c 2 -a 0 -i 1 -k AGT
+ -t 0.000000000 -s 0 -d -1 -p AODV -e 48 -c 2 -a 0 -i 0 -k RTR 
- -t 0.000000000 -s 0 -d -1 -p AODV -e 48 -c 2 -a 0 -i 0 -k RTR
h -t 0.000000000 -s 0 -d -1 -p AODV -e 48 -c 2 -a 0 -i 0 -k RTR
+ -t 0.000535000 -s 0 -d -1 -p AODV -e 106 -c 2 -a 0 -i 0 -k MAC 
- -t 0.000535000 -s 0 -d -1 -p AODV -e 106 -c 2 -a 0 -i 0 -k MAC
h -t 0.000535000 -s 0 -d -1 -p AODV -e 106 -c 2 -a 0 -i 0 -k MAC
r -t 0.001383750 -s 1 -d -1 -p AODV -e 48 -c 2 -a 0 -i 0 -k MAC
r -t 0.001408750 -s 1 -d -1 -p AODV -e 48 -c 2 -a 0 -i 0 -k RTR
+ -t 0.001550796 -s 1 -d -1 -p AODV -e 48 -c 2 -a 0 -i 0 -k RTR 
- -t 0.001550796 -s 1 -d -1 -p AODV -e 48 -c 2 -a 0 -i 0 -k RTR
h -t 0.001550796 -s 1 -d -1 -p AODV -e 48 -c 2 -a 0 -i 0 -k RTR
+ -t 0.001925796 -s 1 -d -1 -p AODV -e 106 -c 2 -a 0 -i 0 -k MAC 
- -t 0.001925796 -s 1 -d -1 -p AODV -e 106 -c 2 -a 0 -i 0 -k MAC
h -t 0.001925796 -s 1 -d -1 -p AODV -e 106 -c 2 -a 0 -i 0 -k MAC
r -t 0.002774463 -s 2 -d -1 -p AODV -e 48 -c 2 -a 0 -i 0 -k MAC
r -t 0.002774546 -s 0 -d -1 -p AODV -e 48 -c 2 -a 0 -i 0 -k MAC
r -t 0.002799463 -s 2 -d -1 -p AODV -e 48 -c 2 -a 0 -i 0 -k RTR
r -t 0.002799546 -s 0 -d -1 -p AODV -e 48 -c 2 -a 0 -i 0 -k RTR
+ -t 0.010791018 -s 2 -d -1 -p AODV -e 48 -c 2 -a 0 -i 0 -k RTR 
- -t 0.010791018 -s 2 -d -1 -p AODV -e 48 -c 2 -a 0 -i 0 -k RTR
h -t 0.010791018 -s 2 -d -1 -p AODV -e 48 -c 2 -a 0 -i 0 -k RTR
+ -t 0.011026018 -s 2 -d -1 -p AODV -e 106 -c 2 -a 0 -i 0 -k MAC 
- -t 0.011026018 -s 2 -d -1 -p AODV -e 106 -c 2 -a 0 -i 0 -k MAC
h -t 0.011026018 -s 2 -d -1 -p AODV -e 106 -c 2 -a 0 -i 0 -k MAC
r -t 0.011874684 -s 1 -d -1 -p AODV -e 48 -c 2 -a 0 -i 0 -k MAC
r -t 0.011874684 -s 3 -d -1 -p AODV -e 48 -c 2 -a 0 -i 0 -k MAC
r -t 0.011899684 -s 1 -d -1 -p AODV -e 48 -c 2 -a 0 -i 0 -k RTR
r -t 0.011899684 -s 3 -d -1 -p AODV -e 48 -c 2 -a 0 -i 0 -k RTR
+ -t 0.014245702 -s 3 -d -1 -p AODV -e 48 -c 2 -a 0 -i 0 -k RTR 
- -t 0.014245702 -s 3 -d -1 -p AODV -e 48 -c 2 -a 0 -i 0 -k RTR
h -t 0.014245702 -s 3 -d -1 -p AODV -e 48 -c 2 -a 0 -i 0 -k RTR
+ -t 0.014680702 -s 3 -d -1 -p AODV -e 106 -c 2 -a 0 -i 0 -k MAC 
- -t 0.014680702 -s 3 -d -1 -p AODV -e 106 -c 2 -a 0 -i 0 -k MAC
h -t 0.014680702 -s 3 -d -1 -p AODV -e 106 -c 2 -a 0 -i 0 -k MAC
r -t 0.015529368 -s 2 -d -1 -p AODV -e 48 -c 2 -a 0 -i 0 -k MAC
r -t 0.015529368 -s 4 -d -1 -p AODV -e 48 -c 2 -a 0 -i 0 -k MAC
r -t 0.015554368 -s 2 -d -1 -p AODV -e 48 -c 2 -a 0 -i 0 -k RTR
r -t 0.015554368 -s 4 -d -1 -p AODV -e 48 -c 2 -a 0 -i 0 -k RTR
+ -t 0.015554368 -s 4 -d 3 -p AODV -e 44 -c 2 -a 0 -i 0 -k RTR 
- -t 0.015554368 -s 4 -d 3 -p AODV -e 44 -c 2 -a 0 -i 0 -k RTR
h -t 0.015554368 -s 4 -d 3 -p AODV -e 44 -c 2 -a 0 -i 0 -k RTR
+ -t 0.015849368 -s 4 -d -1 -p ARP -e 86 -c 2 -a 0 -i 0 -k MAC 
- -t 0.015849368 -s 4 -d -1 -p ARP -e 86 -c 2 -a 0 -i 0 -k MAC
h -t 0.015849368 -s 4 -d -1 -p ARP -e 86 -c 2 -a 0 -i 0 -k MAC
r -t 0.016538035 -s 3 -d -1 -p ARP -e 28 -c 2 -a 0 -i 0 -k MAC
+ -t 0.017133035 -s 3 -d -1 -p RTS -e 44 -c 2 -a 0 -i 0 -k MAC 
- -t 0.017133035 -s 3 -d -1 -p RTS -e 44 -c 2 -a 0 -i 0 -k MAC
h -t 0.017133035 -s 3 -d -1 -p RTS -e 44 -c 2 -a 0 -i 0 -k MAC
r -t 0.017485702 -s 4 -d -1 -p RTS -e 44 -c 2 -a 0 -i 0 -k MAC
+ -t 0.017495702 -s 4 -d -1 -p CTS -e 38 -c 2 -a 0 -i 0 -k MAC 
- -t 0.017495702 -s 4 -d -1 -p CTS -e 38 -c 2 -a 0 -i 0 -k MAC
h -t 0.017495702 -s 4 -d -1 -p CTS -e 38 -c 2 -a 0 -i 0 -k MAC
r -t 0.017800368 -s 3 -d -1 -p CTS -e 38 -c 2 -a 0 -i 0 -k MAC
+ -t 0.017810368 -s 3 -d -1 -p ARP -e 86 -c 2 -a 0 -i 0 -k MAC 
- -t 0.017810368 -s 3 -d -1 -p ARP -e 86 -c 2 -a 0 -i 0 -k MAC
h -t 0.017810368 -s 3 -d -1 -p ARP -e 86 -c 2 -a 0 -i 0 -k MAC
r -t 0.018499035 -s 4 -d -1 -p ARP -e 28 -c 2 -a 0 -i 0 -k MAC
+ -t 0.018509035 -s 4 -d -1 -p ACK -e 38 -c 2 -a 0 -i 0 -k MAC 
- -t 0.018509035 -s 4 -d -1 -p ACK -e 38 -c 2 -a 0 -i 0 -k MAC
h -t 0.018509035 -s 4 -d -1 -p ACK -e 38 -c 2 -a 0 -i 0 -k MAC
r -t 0.018813702 -s 3 -d -1 -p ACK -e 38 -c 2 -a 0 -i 0 -k MAC
+ -t 0.019023035 -s 4 -d -1 -p RTS -e 44 -c 2 -a 0 -i 0 -k MAC 
- -t 0.019023035 -s 4 -d -1 -p RTS -e 44 -c 2 -a 0 -i 0 -k MAC
h -t 0.019023035 -s 4 -d -1 -p RTS -e 44 -c 2 -a 0 -i 0 -k MAC
r -t 0.019375702 -s 3 -d -1 -p RTS -e 44 -c 2 -a 0 -i 0 -k MAC
+ -t 0.019385702 -s 3 -d -1 -p CTS -e 38 -c 2 -a 0 -i 0 -k MAC 
- -t 0.019385702 -s 3 -d -1 -p CTS -e 38 -c 2 -a 0 -i 0 -k MAC
h -t 0.019385702 -s 3 -d -1 -p CTS -e 38 -c 2 -a 0 -i 0 -k MAC
r -t 0.019690368 -s 4 -d -1 -p CTS -e 38 -c 2 -a 0 -i 0 -k MAC
+ -t 0.019700368 -s 4 -d 3 -p AODV -e 102 -c 2 -a 0 -i 0 -k MAC 
- -t 0.019700368 -s 4 -d 3 -p AODV -e 102 -c 2 -a 0 -i 0 -k MAC
h -t 0.019700368 -s 4 -d 3 -p AODV -e 102 -c 2 -a 0 -i 0 -k MAC
r -t 0.020517035 -s 3 -d 3 -p AODV -e 44 -c 2 -a 0 -i 0 -k MAC
+ -t 0.020527035 -s 3 -d -1 -p ACK -e 38 -c 2 -a 0 -i 0 -k MAC 
- -t 0.020527035 -s 3 -d -1 -p ACK -e 38 -c 2 -a 0 -i 0 -k MAC
h -t 0.020527035 -s 3 -d -1 -p ACK -e 38 -c 2 -a 0 -i 0 -k MAC
+ -t 0.020542035 -s 3 -d 2 -p AODV -e 44 -c 2 -a 0 -i 0 -k RTR 
- -t 0.020542035 -s 3 -d 2 -p AODV -e 44 -c 2 -a 0 -i 0 -k RTR
h -t 0.020542035 -s 3 -d 2 -p AODV -e 44 -c 2 -a 0 -i 0 -k RTR
r -t 0.020831702 -s 4 -d -1 -p ACK -e 38 -c 2 -a 0 -i 0 -k MAC
+ -t 0.021101035 -s 3 -d -1 -p ARP -e 86 -c 2 -a 0 -i 0 -k MAC 
- -t 0.021101035 -s 3 -d -1 -p ARP -e 86 -c 2 -a 0 -i 0 -k MAC
h -t 0.021101035 -s 3 -d -1 -p ARP -e 86 -c 2 -a 0 -i 0 -k MAC
r -t 0.021789702 -s 2 -d -1 -p ARP -e 28 -c 2 -a 0 -i 0 -k MAC
r -t 0.021789702 -s 4 -d -1 -p ARP -e 28 -c 2 -a 0 -i 0 -k MAC
+ -t 0.022324702 -s 2 -d -1 -p RTS -e 44 -c 2 -a 0 -i 0 -k MAC 
- -t 0.022324702 -s 2 -d -1 -p RTS -e 44 -c 2 -a 0 -i 0 -k MAC
h -t 0.022324702 -s 2 -d -1 -p RTS -e 44 -c 2 -a 0 -i 0 -k MAC
r -t 0.022677368 -s 3 -d -1 -p RTS -e 44 -c 2 -a 0 -i 0 -k MAC
+ -t 0.022687368 -s 3 -d -1 -p CTS -e 38 -c 2 -a 0 -i 0 -k MAC 
- -t 0.022687368 -s 3 -d -1 -p CTS -e 38 -c 2 -a 0 -i 0 -k MAC
h -t 0.022687368 -s 3 -d -1 -p CTS -e 38 -c 2 -a 0 -i 0 -k MAC
r -t 0.022992035 -s 2 -d -1 -p CTS -e 38 -c 2 -a 0 -i 0 -k MAC
+ -t 0.023002035 -s 2 -d -1 -p ARP -e 86 -c 2 -a 0 -i 0 -k MAC 
- -t 0.023002035 -s 2 -d -1 -p ARP -e 86 -c 2 -a 0 -i 0 -k MAC
h -t 0.023002035 -s 2 -d -1 -p ARP -e 86 -c 2 -a 0 -i 0 -k MAC
r -t 0.023690702 -s 3 -d -1 -p ARP -e 28 -c 2 -a 0 -i 0 -k MAC
+ -t 0.023700702 -s 3 -d -1 -p ACK -e 38 -c 2 -a 0 -i 0 -k MAC 
- -t 0.023700702 -s 3 -d -1 -p ACK -e 38 -c 2 -a 0 -i 0 -k MAC
h -t 0.023700702 -s 3 -d -1 -p ACK -e 38 -c 2 -a 0 -i 0 -k MAC
r -t 0.024005368 -s 2 -d -1 -p ACK -e 38 -c 2 -a 0 -i 0 -k MAC
+ -t 0.024394702 -s 3 -d -1 -p RTS -e 44 -c 2 -a 0 -i 0 -k MAC 
- -t 0.024394702 -s 3 -d -1 -p RTS -e 44 -c 2 -a 0 -i 0 -k MAC
h -t 0.024394702 -s 3 -d -1 -p RTS -e 44 -c 2 -a 0 -i 0 -k MAC
r -t 0.024747368 -s 2 -d -1 -p RTS -e 44 -c 2 -a 0 -i 0 -k MAC
+ -t 0.024757368 -s 2 -d -1 -p CTS -e 38 -c 2 -a 0 -i 0 -k MAC 
- -t 0.024757368 -s 2 -d -1 -p CTS -e 38 -c 2 -a 0 -i 0 -k MAC
h -t 0.024757368 -s 2 -d -1 -p CTS -e 38 -c 2 -a 0 -i 0 -k MAC
r -t 0.025062035 -s 3 -d -1 -p CTS -e 38 -c 2 -a 0 -i 0 -k MAC
+ -t 0.025072035 -s 3 -d 2 -p AODV -e 102 -c 2 -a 0 -i 0 -k MAC 
- -t 0.025072035 -s 3 -d 2 -p AODV -e 102 -c 2 -a 0 -i 0 -k MAC
h -t 0.025072035 -s 3 -d 2 -p AODV -e 102 -c 2 -a 0 -i 0 -k MAC
r -t 0.025888702 -s 2 -d 2 -p AODV -e 44 -c 2 -a 0 -i 0 -k MAC
+ -t 0.025898702 -s 2 -d -1 -p ACK -e 38 -c 2 -a 0 -i 0 -k MAC 
- -t 0.025898702 -s 2 -d -1 -p ACK -e 38 -c 2 -a 0 -i 0 -k MAC
h -t 0.025898702 -s 2 -d -1 -p ACK -e 38 -c 2 -a 0 -i 0 -k MAC
+ -t 0.025913702 -s 2 -d 1 -p AODV -e 44 -c 2 -a 0 -i 0 -k RTR 
- -t 0.025913702 -s 2 -d 1 -p AODV -e 44 -c 2 -a 0 -i 0 -k RTR
h -t 0.025913702 -s 2 -d 1 -p AODV -e 44 -c 2 -a 0 -i 0 -k RTR
r -t 0.026203368 -s 3 -d -1 -p ACK -e 38 -c 2 -a 0 -i 0 -k MAC
+ -t 0.026452702 -s 2 -d -1 -p ARP -e 86 -c 2 -a 0 -i 0 -k MAC 
- -t 0.026452702 -s 2 -d -1 -p ARP -e 86 -c 2 -a 0 -i 0 -k MAC
h -t 0.026452702 -s 2 -d -1 -p ARP -e 86 -c 2 -a 0 -i 0 -k MAC
r -t 0.027141368 -s 1 -d -1 -p ARP -e 28 -c 2 -a 0 -i 0 -k MAC
r -t 0.027141368 -s 3 -d -1 -p ARP -e 28 -c 2 -a 0 -i 0 -k MAC
+ -t 0.027436368 -s 1 -d -1 -p RTS -e 44 -c 2 -a 0 -i 0 -k MAC 
- -t 0.027436368 -s 1 -d -1 -p RTS -e 44 -c 2 -a 0 -i 0 -k MAC
h -t 0.027436368 -s 1 -d -1 -p RTS -e 44 -c 2 -a 0 -i 0 -k MAC
r -t 0.027789035 -s 2 -d -1 -p RTS -e 44 -c 2 -a 0 -i 0 -k MAC
+ -t 0.027799035 -s 2 -d -1 -p CTS -e 38 -c 2 -a 0 -i 0 -k MAC 
- -t 0.027799035 -s 2 -d -1 -p CTS -e 38 -c 2 -a 0 -i 0 -k MAC
h -t 0.027799035 -s 2 -d -1 -p CTS -e 38 -c 2 -a 0 -i 0 -k MAC
r -t 0.028103702 -s 1 -d -1 -p CTS -e 38 -c 2 -a 0 -i 0 -k MAC
+ -t 0.028113702 -s 1 -d -1 -p ARP -e 86 -c 2 -a 0 -i 0 -k MAC 
- -t 0.028113702 -s 1 -d -1 -p ARP -e 86 -c 2 -a 0 -i 0 -k MAC
h -t 0.028113702 -s 1 -d -1 -p ARP -e 86 -c 2 -a 0 -i 0 -k MAC
r -t 0.028802368 -s 2 -d -1 -p ARP -e 28 -c 2 -a 0 -i 0 -k MAC
+ -t 0.028812368 -s 2 -d -1 -p ACK -e 38 -c 2 -a 0 -i 0 -k MAC 
- -t 0.028812368 -s 2 -d -1 -p ACK -e 38 -c 2 -a 0 -i 0 -k MAC
h -t 0.028812368 -s 2 -d -1 -p ACK -e 38 -c 2 -a 0 -i 0 -k MAC
r -t 0.029117035 -s 1 -d -1 -p ACK -e 38 -c 2 -a 0 -i 0 -k MAC
+ -t 0.029606368 -s 2 -d -1 -p RTS -e 44 -c 2 -a 0 -i 0 -k MAC 
- -t 0.029606368 -s 2 -d -1 -p RTS -e 44 -c 2 -a 0 -i 0 -k MAC
h -t 0.029606368 -s 2 -d -1 -p RTS -e 44 -c 2 -a 0 -i 0 -k MAC
r -t 0.029959035 -s 1 -d -1 -p RTS -e 44 -c 2 -a 0 -i 0 -k MAC
+ -t 0.029969035 -s 1 -d -1 -p CTS -e 38 -c 2 -a 0 -i 0 -k MAC 
- -t 0.029969035 -s 1 -d -1 -p CTS -e 38 -c 2 -a 0 -i 0 -k MAC
h -t 0.029969035 -s 1 -d -1 -p CTS -e 38 -c 2 -a 0 -i 0 -k MAC
r -t 0.030273702 -s 2 -d -1 -p CTS -e 38 -c 2 -a 0 -i 0 -k MAC
+ -t 0.030283702 -s 2 -d 1 -p AODV -e 102 -c 2 -a 0 -i 0 -k MAC 
- -t 0.030283702 -s 2 -d 1 -p AODV -e 102 -c 2 -a 0 -i 0 -k MAC
h -t 0.030283702 -s 2 -d 1 -p AODV -e 102 -c 2 -a 0 -i 0 -k MAC
r -t 0.031100368 -s 1 -d 1 -p AODV -e 44 -c 2 -a 0 -i 0 -k MAC
+ -t 0.031110368 -s 1 -d -1 -p ACK -e 38 -c 2 -a 0 -i 0 -k MAC 
- -t 0.031110368 -s 1 -d -1 -p ACK -e 38 -c 2 -a 0 -i 0 -k MAC
h -t 0.031110368 -s 1 -d -1 -p ACK -e 38 -c 2 -a 0 -i 0 -k MAC
+ -t 0.031125368 -s 1 -d 0 -p AODV -e 44 -c 2 -a 0 -i 0 -k RTR 
- -t 0.031125368 -s 1 -d 0 -p AODV -e 44 -c 2 -a 0 -i 0 -k RTR
h -t 0.031125368 -s 1 -d 0 -p AODV -e 44 -c 2 -a 0 -i 0 -k RTR
r -t 0.031415035 -s 2 -d -1 -p ACK -e 38 -c 2 -a 0 -i 0 -k MAC
+ -t 0.032044368 -s 1 -d -1 -p ARP -e 86 -c 2 -a 0 -i 0 -k MAC 
- -t 0.032044368 -s 1 -d -1 -p ARP -e 86 -c 2 -a 0 -i 0 -k MAC
h -t 0.032044368 -s 1 -d -1 -p ARP -e 86 -c 2 -a 0 -i 0 -k MAC
r -t 0.032733035 -s 2 -d -1 -p ARP -e 28 -c 2 -a 0 -i 0 -k MAC
r -t 0.032733113 -s 0 -d -1 -p ARP -e 28 -c 2 -a 0 -i 0 -k MAC
+ -t 0.033148113 -s 0 -d -1 -p RTS -e 44 -c 2 -a 0 -i 0 -k MAC 
- -t 0.033148113 -s 0 -d -1 -p RTS -e 44 -c 2 -a 0 -i 0 -k MAC
h -t 0.033148113 -s 0 -d -1 -p RTS -e 44 -c 2 -a 0 -i 0 -k MAC
r -t 0.033500858 -s 1 -d -1 -p RTS -e 44 -c 2 -a 0 -i 0 -k MAC
+ -t 0.033510858 -s 1 -d -1 -p CTS -e 38 -c 2 -a 0 -i 0 -k MAC 
- -t 0.033510858 -s 1 -d -1 -p CTS -e 38 -c 2 -a 0 -i 0 -k MAC
h -t 0.033510858 -s 1 -d -1 -p CTS -e 38 -c 2 -a 0 -i 0 -k MAC
r -t 0.033815603 -s 0 -d -1 -p CTS -e 38 -c 2 -a 0 -i 0 -k MAC
+ -t 0.033825603 -s 0 -d -1 -p ARP -e 86 -c 2 -a 0 -i 0 -k MAC 
- -t 0.033825603 -s 0 -d -1 -p ARP -e 86 -c 2 -a 0 -i 0 -k MAC
h -t 0.033825603 -s 0 -d -1 -p ARP -e 86 -c 2 -a 0 -i 0 -k MAC
r -t 0.034514348 -s 1 -d -1 -p ARP -e 28 -c 2 -a 0 -i 0 -k MAC
+ -t 0.034524348 -s 1 -d -1 -p ACK -e 38 -c 2 -a 0 -i 0 -k MAC 
- -t 0.034524348 -s 1 -d -1 -p ACK -e 38 -c 2 -a 0 -i 0 -k MAC
h -t 0.034524348 -s 1 -d -1 -p ACK -e 38 -c 2 -a 0 -i 0 -k MAC
r -t 0.034829093 -s 0 -d -1 -p ACK -e 38 -c 2 -a 0 -i 0 -k MAC
+ -t 0.035058348 -s 1 -d -1 -p RTS -e 44 -c 2 -a 0 -i 0 -k MAC 
- -t 0.035058348 -s 1 -d -1 -p RTS -e 44 -c 2 -a 0 -i 0 -k MAC
h -t 0.035058348 -s 1 -d -1 -p RTS -e 44 -c 2 -a 0 -i 0 -k MAC
r -t 0.035411093 -s 0 -d -1 -p RTS -e 44 -c 2 -a 0 -i 0 -k MAC
+ -t 0.035421093 -s 0 -d -1 -p CTS -e 38 -c 2 -a 0 -i 0 -k MAC 
- -t 0.035421093 -s 0 -d -1 -p CTS -e 38 -c 2 -a 0 -i 0 -k MAC
h -t 0.035421093 -s 0 -d -1 -p CTS -e 38 -c 2 -a 0 -i 0 -k MAC
r -t 0.035725837 -s 1 -d -1 -p CTS -e 38 -c 2 -a 0 -i 0 -k MAC
+ -t 0.035735837 -s 1 -d 0 -p AODV -e 102 -c 2 -a 0 -i 0 -k MAC 
- -t 0.035735837 -s 1 -d 0 -p AODV -e 102 -c 2 -a 0 -i 0 -k MAC
h -t 0.035735837 -s 1 -d 0 -p AODV -e 102 -c 2 -a 0 -i 0 -k MAC
r -t 0.036552582 -s 0 -d 0 -p AODV -e 44 -c 2 -a 0 -i 0 -k MAC
+ -t 0.036562582 -s 0 -d -1 -p ACK -e 38 -c 2 -a 0 -i 0 -k MAC 
- -t 0.036562582 -s 0 -d -1 -p ACK -e 38 -c 2 -a 0 -i 0 -k MAC
h -t 0.036562582 -s 0 -d -1 -p ACK -e 38 -c 2 -a 0 -i 0 -k MAC
+ -t 0.036577582 -s 0 -d 1 -p udp -e 520 -c 2 -a 0 -i 0 -k RTR 
- -t 0.036577582 -s 0 -d 1 -p udp -e 520 -c 2 -a 0 -i 0 -k RTR
h -t 0.036577582 -s 0 -d 1 -p udp -e 520 -c 2 -a 0 -i 0 -k RTR
r -t 0.036867326 -s 1 -d -1 -p ACK -e 38 -c 2 -a 0 -i 0 -k MAC
+ -t 0.037216582 -s 0 -d -1 -p RTS -e 44 -c 2 -a 0 -i 0 -k MAC 
- -t 0.037216582 -s 0 -d -1 -p RTS -e 44 -c 2 -a 0 -i 0 -k MAC
h -t 0.037216582 -s 0 -d -1 -p RTS -e 44 -c 2 -a 0 -i 0 -k MAC
r -t 0.037569326 -s 1 -d -1 -p RTS -e 44 -c 2 -a 0 -i 0 -k MAC
+ -t 0.037579326 -s 1 -d -1 -p CTS -e 38 -c 2 -a 0 -i 0 -k MAC 
- -t 0.037579326 -s 1 -d -1 -p CTS -e 38 -c 2 -a 0 -i 0 -k MAC
h -t 0.037579326 -s 1 -d -1 -p CTS -e 38 -c 2 -a 0 -i 0 -k MAC
r -t 0.037884070 -s 0 -d -1 -p CTS -e 38 -c 2 -a 0 -i 0 -k MAC
+ -t 0.037894070 -s 0 -d 1 -p udp -e 578 -c 2 -a 0 -i 0 -k MAC 
- -t 0.037894070 -s 0 -d 1 -p udp -e 578 -c 2 -a 0 -i 0 -k MAC
h -t 0.037894070 -s 0 -d 1 -p udp -e 578 -c 2 -a 0 -i 0 -k MAC
r -t 0.042518814 -s 1 -d 1 -p udp -e 520 -c 2 -a 0 -i 0 -k MAC
+ -t 0.042528814 -s 1 -d -1 -p ACK -e 38 -c 2 -a 0 -i 0 -k MAC 
- -t 0.042528814 -s 1 -d -1 -p ACK -e 38 -c 2 -a 0 -i 0 -k MAC
h -t 0.042528814 -s 1 -d -1 -p ACK -e 38 -c 2 -a 0 -i 0 -k MAC
+ -t 0.042543814 -s 1 -d 2 -p udp -e 520 -c 2 -a 0 -i 0 -k RTR 
- -t 0.042543814 -s 1 -d 2 -p udp -e 520 -c 2 -a 0 -i 0 -k RTR
h -t 0.042543814 -s 1 -d 2 -p udp -e 520 -c 2 -a 0 -i 0 -k RTR
r -t 0.042833558 -s 0 -d -1 -p ACK -e 38 -c 2 -a 0 -i 0 -k MAC
+ -t 0.042962814 -s 1 -d -1 -p RTS -e 44 -c 2 -a 0 -i 0 -k MAC 
- -t 0.042962814 -s 1 -d -1 -p RTS -e 44 -c 2 -a 0 -i 0 -k MAC
h -t 0.042962814 -s 1 -d -1 -p RTS -e 44 -c 2 -a 0 -i 0 -k MAC
r -t 0.043315481 -s 2 -d -1 -p RTS -e 44 -c 2 -a 0 -i 0 -k MAC
+ -t 0.043325481 -s 2 -d -1 -p CTS -e 38 -c 2 -a 0 -i 0 -k MAC 
- -t 0.043325481 -s 2 -d -1 -p CTS -e 38 -c 2 -a 0 -i 0 -k MAC
h -t 0.043325481 -s 2 -d -1 -p CTS -e 38 -c 2 -a 0 -i 0 -k MAC
r -t 0.043630148 -s 1 -d -1 -p CTS -e 38 -c 2 -a 0 -i 0 -k MAC
+ -t 0.043640148 -s 1 -d 2 -p udp -e 578 -c 2 -a 0 -i 0 -k MAC 
- -t 0.043640148 -s 1 -d 2 -p udp -e 578 -c 2 -a 0 -i 0 -k MAC
h -t 0.043640148 -s 1 -d 2 -p udp -e 578 -c 2 -a 0 -i 0 -k MAC
+ -t 0.046577582 -s 0 -d 1 -p udp -e 520 -c 2 -a 0 -i 1 -k RTR 
- -t 0.046577582 -s 0 -d 1 -p udp -e 520 -c 2 -a 0 -i 1 -k RTR
h -t 0.046577582 -s 0 -d 1 -p udp -e 520 -c 2 -a 0 -i 1 -k RTR
r -t 0.048264814 -s 2 -d 2 -p udp -e 520 -c 2 -a 0 -i 0 -k MAC
+ -t 0.048274814 -s 2 -d -1 -p ACK -e 38 -c 2 -a 0 -i 0 -k MAC 
- -t 0.048274814 -s 2 -d -1 -p ACK -e 38 -c 2 -a 0 -i 0 -k MAC
h -t 0.048274814 -s 2 -d -1 -p ACK -e 38 -c 2 -a 0 -i 0 -k MAC
+ -t 0.048289814 -s 2 -d 3 -p udp -e 520 -c 2 -a 0 -i 0 -k RTR 
- -t 0.048289814 -s 2 -d 3 -p udp -e 520 -c 2 -a 0 -i 0 -k RTR
h -t 0.048289814 -s 2 -d 3 -p udp -e 520 -c 2 -a 0 -i 0 -k RTR
r -t 0.048579481 -s 1 -d -1 -p ACK -e 38 -c 2 -a 0 -i 0 -k MAC
+ -t 0.048708814 -s 2 -d -1 -p RTS -e 44 -c 2 -a 0 -i 0 -k MAC 
- -t 0.048708814 -s 2 -d -1 -p RTS -e 44 -c 2 -a 0 -i 0 -k MAC
h -t 0.048708814 -s 2 -d -1 -p RTS -e 44 -c 2 -a 0 -i 0 -k MAC
r -t 0.049061481 -s 3 -d -1 -p RTS -e 44 -c 2 -a 0 -i 0 -k MAC
+ -t 0.049071481 -s 3 -d -1 -p CTS -e 38 -c 2 -a 0 -i 0 -k MAC 
- -t 0.049071481 -s 3 -d -1 -p CTS -e 38 -c 2 -a 0 -i 0 -k MAC
h -t 0.049071481 -s 3 -d -1 -p CTS -e 38 -c 2 -a 0 -i 0 -k MAC
r -t 0.049376148 -s 2 -d -1 -p CTS -e 38 -c 2 -a 0 -i 0 -k MAC
+ -t 0.049386148 -s 2 -d 3 -p udp -e 578 -c 2 -a 0 -i 0 -k MAC 
- -t 0.049386148 -s 2 -d 3 -p udp -e 578 -c 2 -a 0 -i 0 -k MAC
h -t 0.049386148 -s 2 -d 3 -p udp -e 578 -c 2 -a 0 -i 0 -k MAC
r -t 0.054010814 -s 3 -d 3 -p udp -e 520 -c 2 -a 0 -i 0 -k MAC
+ -t 0.054020814 -s 3 -d -1 -p ACK -e 38 -c 2 -a 0 -i 0 -k MAC 
- -t 0.054020814 -s 3 -d -1 -p ACK -e 38 -c 2 -a 0 -i 0 -k MAC
h -t 0.054020814 -s 3 -d -1 -p ACK -e 38 -c 2 -a 0 -i 0 -k MAC
+ -t 0.054035814 -s 3 -d 4 -p udp -e 520 -c 2 -a 0 -i 0 -k RTR 
- -t 0.054035814 -s 3 -d 4 -p udp -e 520 -c 2 -a 0 -i 0 -k RTR
h -t 0.054035814 -s 3 -d 4 -p udp -e 520 -c 2 -a 0 -i 0 -k RTR
r -t 0.054325481 -s 2 -d -1 -p ACK -e 38 -c 2 -a 0 -i 0 -k MAC
+ -t 0.054505518 -s 0 -d -1 -p RTS -e 44 -c 2 -a 0 -i 0 -k MAC 
- -t 0.054505518 -s 0 -d -1 -p RTS -e 44 -c 2 -a 0 -i 0 -k MAC
h -t 0.054505518 -s 0 -d -1 -p RTS -e 44 -c 2 -a 0 -i 0 -k MAC
+ -t 0.054574814 -s 3 -d -1 -p RTS -e 44 -c 2 -a 0 -i 0 -k MAC 
- -t 0.054574814 -s 3 -d -1 -p RTS -e 44 -c 2 -a 0 -i 0 -k MAC
h -t 0.054574814 -s 3 -d -1 -p RTS -e 44 -c 2 -a 0 -i 0 -k MAC
r -t 0.054858260 -s 1 -d -1 -p RTS -e 44 -c 2 -a 0 -i 0 -k MAC
r -t 0.054927481 -s 4 -d -1 -p RTS -e 44 -c 2 -a 0 -i 0 -k MAC
+ -t 0.054937481 -s 4 -d -1 -p CTS -e 38 -c 2 -a 0 -i 0 -k MAC 
- -t 0.054937481 -s 4 -d -1 -p CTS -e 38 -c 2 -a 0 -i 0 -k MAC
h -t 0.054937481 -s 4 -d -1 -p CTS -e 38 -c 2 -a 0 -i 0 -k MAC
r -t 0.055242148 -s 3 -d -1 -p CTS -e 38 -c 2 -a 0 -i 0 -k MAC
+ -t 0.055252148 -s 3 -d 4 -p udp -e 578 -c 2 -a 0 -i 0 -k MAC 
- -t 0.055252148 -s 3 -d 4 -p udp -e 578 -c 2 -a 0 -i 0 -k MAC
h -t 0.055252148 -s 3 -d 4 -p udp -e 578 -c 2 -a 0 -i 0 -k MAC
+ -t 0.055785518 -s 0 -d -1 -p RTS -e 44 -c 2 -a 0 -i 0 -k MAC 
- -t 0.055785518 -s 0 -d -1 -p RTS -e 44 -c 2 -a 0 -i 0 -k MAC
h -t 0.055785518 -s 0 -d -1 -p RTS -e 44 -c 2 -a 0 -i 0 -k MAC
d -t 0.055786260 -s 1 -d -1 -p RTS -e 44 -c 2 -a 0 -i 0 -k MAC
+ -t 0.058925518 -s 0 -d -1 -p RTS -e 44 -c 2 -a 0 -i 0 -k MAC 
- -t 0.058925518 -s 0 -d -1 -p RTS -e 44 -c 2 -a 0 -i 0 -k MAC
h -t 0.058925518 -s 0 -d -1 -p RTS -e 44 -c 2 -a 0 -i 0 -k MAC
d -t 0.058926259 -s 1 -d -1 -p RTS -e 44 -c 2 -a 0 -i 0 -k MAC
r -t 0.059876814 -s 4 -d 4 -p udp -e 520 -c 2 -a 0 -i 0 -k MAC
+ -t 0.059886814 -s 4 -d -1 -p ACK -e 38 -c 2 -a 0 -i 0 -k MAC 
- -t 0.059886814 -s 4 -d -1 -p ACK -e 38 -c 2 -a 0 -i 0 -k MAC
h -t 0.059886814 -s 4 -d -1 -p ACK -e 38 -c 2 -a 0 -i 0 -k MAC
r -t 0.059901814 -s 4 -d 4 -p udp -e 520 -c 2 -a 0 -i 0 -k AGT
v -t 0.0599018144162014 -e sim_annotation 0.0599018144162014 1 4 received {Xpos=108.320000}
r -t 0.060191481 -s 3 -d -1 -p ACK -e 38 -c 2 -a 0 -i 0 -k MAC
+ -t 0.063165518 -s 0 -d -1 -p RTS -e 44 -c 2 -a 0 -i 0 -k MAC 
- -t 0.063165518 -s 0 -d -1 -p RTS -e 44 -c 2 -a 0 -i 0 -k MAC
h -t 0.063165518 -s 0 -d -1 -p RTS -e 44 -c 2 -a 0 -i 0 -k MAC
r -t 0.063518259 -s 1 -d -1 -p RTS -e 44 -c 2 -a 0 -i 0 -k MAC
+ -t 0.063528259 -s 1 -d -1 -p CTS -e 38 -c 2 -a 0 -i 0 -k MAC 
- -t 0.063528259 -s 1 -d -1 -p CTS -e 38 -c 2 -a 0 -i 0 -k MAC
h -t 0.063528259 -s 1 -d -1 -p CTS -e 38 -c 2 -a 0 -i 0 -k MAC
r -t 0.063832999 -s 0 -d -1 -p CTS -e 38 -c 2 -a 0 -i 0 -k MAC
+ -t 0.063842999 -s 0 -d 1 -p udp -e 578 -c 2 -a 0 -i 1 -k MAC 
- -t 0.063842999 -s 0 -d 1 -p udp -e 578 -c 2 -a 0 -i 1 -k MAC
h -t 0.063842999 -s 0 -d 1 -p udp -e 578 -c 2 -a 0 -i 1 -k MAC
r -t 0.068467739 -s 1 -d 1 -p udp -e 520 -c 2 -a 0 -i 1 -k MAC
+ -t 0.068477739 -s 1 -d -1 -p ACK -e 38 -c 2 -a 0 -i 0 -k MAC 
- -t 0.068477739 -s 1 -d -1 -p ACK -e 38 -c 2 -a 0 -i 0 -k MAC
h -t 0.068477739 -s 1 -d -1 -p ACK -e 38 -c 2 -a 0 -i 0 -k MAC
+ -t 0.068492739 -s 1 -d 2 -p udp -e 520 -c 2 -a 0 -i 1 -k RTR 
- -t 0.068492739 -s 1 -d 2 -p udp -e 520 -c 2 -a 0 -i 1 -k RTR
h -t 0.068492739 -s 1 -d 2 -p udp -e 520 -c 2 -a 0 -i 1 -k RTR
r -t 0.068782479 -s 0 -d -1 -p ACK -e 38 -c 2 -a 0 -i 0 -k MAC
+ -t 0.068891739 -s 1 -d -1 -p RTS -e 44 -c 2 -a 0 -i 0 -k MAC 
- -t 0.068891739 -s 1 -d -1 -p RTS -e 44 -c 2 -a 0 -i 0 -k MAC
h -t 0.068891739 -s 1 -d -1 -p RTS -e 44 -c 2 -a 0 -i 0 -k MAC
r -t 0.069244406 -s 2 -d -1 -p RTS -e 44 -c 2 -a 0 -i 0 -k MAC
+ -t 0.069254406 -s 2 -d -1 -p CTS -e 38 -c 2 -a 0 -i 0 -k MAC 
- -t 0.069254406 -s 2 -d -1 -p CTS -e 38 -c 2 -a 0 -i 0 -k MAC
h -t 0.069254406 -s 2 -d -1 -p CTS -e 38 -c 2 -a 0 -i 0 -k MAC
r -t 0.069559073 -s 1 -d -1 -p CTS -e 38 -c 2 -a 0 -i 0 -k MAC
+ -t 0.069569073 -s 1 -d 2 -p udp -e 578 -c 2 -a 0 -i 1 -k MAC 
- -t 0.069569073 -s 1 -d 2 -p udp -e 578 -c 2 -a 0 -i 1 -k MAC
h -t 0.069569073 -s 1 -d 2 -p udp -e 578 -c 2 -a 0 -i 1 -k MAC
r -t 0.074193739 -s 2 -d 2 -p udp -e 520 -c 2 -a 0 -i 1 -k MAC
+ -t 0.074203739 -s 2 -d -1 -p ACK -e 38 -c 2 -a 0 -i 0 -k MAC 
- -t 0.074203739 -s 2 -d -1 -p ACK -e 38 -c 2 -a 0 -i 0 -k MAC
h -t 0.074203739 -s 2 -d -1 -p ACK -e 38 -c 2 -a 0 -i 0 -k MAC
+ -t 0.074218739 -s 2 -d 3 -p udp -e 520 -c 2 -a 0 -i 1 -k RTR 
- -t 0.074218739 -s 2 -d 3 -p udp -e 520 -c 2 -a 0 -i 1 -k RTR
h -t 0.074218739 -s 2 -d 3 -p udp -e 520 -c 2 -a 0 -i 1 -k RTR
r -t 0.074508406 -s 1 -d -1 -p ACK -e 38 -c 2 -a 0 -i 0 -k MAC
+ -t 0.074897739 -s 2 -d -1 -p RTS -e 44 -c 2 -a 0 -i 0 -k MAC 
- -t 0.074897739 -s 2 -d -1 -p RTS -e 44 -c 2 -a 0 -i 0 -k MAC
h -t 0.074897739 -s 2 -d -1 -p RTS -e 44 -c 2 -a 0 -i 0 -k MAC
r -t 0.075250406 -s 3 -d -1 -p RTS -e 44 -c 2 -a 0 -i 0 -k MAC
+ -t 0.075260406 -s 3 -d -1 -p CTS -e 38 -c 2 -a 0 -i 0 -k MAC 
- -t 0.075260406 -s 3 -d -1 -p CTS -e 38 -c 2 -a 0 -i 0 -k MAC
h -t 0.075260406 -s 3 -d -1 -p CTS -e 38 -c 2 -a 0 -i 0 -k MAC
r -t 0.075565073 -s 2 -d -1 -p CTS -e 38 -c 2 -a 0 -i 0 -k MAC
+ -t 0.075575073 -s 2 -d 3 -p udp -e 578 -c 2 -a 0 -i 1 -k MAC 
- -t 0.075575073 -s 2 -d 3 -p udp -e 578 -c 2 -a 0 -i 1 -k MAC
h -t 0.075575073 -s 2 -d 3 -p udp -e 578 -c 2 -a 0 -i 1 -k MAC
r -t 0.080199739 -s 3 -d 3 -p udp -e 520 -c 2 -a 0 -i 1 -k MAC
+ -t 0.080209739 -s 3 -d -1 -p ACK -e 38 -c 2 -a 0 -i 0 -k MAC 
- -t 0.080209739 -s 3 -d -1 -p ACK -e 38 -c 2 -a 0 -i 0 -k MAC
h -t 0.080209739 -s 3 -d -1 -p ACK -e 38 -c 2 -a 0 -i 0 -k MAC
+ -t 0.080224739 -s 3 -d 4 -p udp -e 520 -c 2 -a 0 -i 1 -k RTR 
- -t 0.080224739 -s 3 -d 4 -p udp -e 520 -c 2 -a 0 -i 1 -k RTR
h -t 0.080224739 -s 3 -d 4 -p udp -e 520 -c 2 -a 0 -i 1 -k RTR
r -t 0.080514406 -s 2 -d -1 -p ACK -e 38 -c 2 -a 0 -i 0 -k MAC
+ -t 0.080843739 -s 3 -d -1 -p RTS -e 44 -c 2 -a 0 -i 0 -k MAC 
- -t 0.080843739 -s 3 -d -1 -p RTS -e 44 -c 2 -a 0 -i 0 -k MAC
h -t 0.080843739 -s 3 -d -1 -p RTS -e 44 -c 2 -a 0 -i 0 -k MAC
r -t 0.081196406 -s 4 -d -1 -p RTS -e 44 -c 2 -a 0 -i 0 -k MAC
+ -t 0.081206406 -s 4 -d -1 -p CTS -e 38 -c 2 -a 0 -i 0 -k MAC 
- -t 0.081206406 -s 4 -d -1 -p CTS -e 38 -c 2 -a 0 -i 0 -k MAC
h -t 0.081206406 -s 4 -d -1 -p CTS -e 38 -c 2 -a 0 -i 0 -k MAC
r -t 0.081511073 -s 3 -d -1 -p CTS -e 38 -c 2 -a 0 -i 0 -k MAC
+ -t 0.081521073 -s 3 -d 4 -p udp -e 578 -c 2 -a 0 -i 1 -k MAC 
- -t 0.081521073 -s 3 -d 4 -p udp -e 578 -c 2 -a 0 -i 1 -k MAC
h -t 0.081521073 -s 3 -d 4 -p udp -e 578 -c 2 -a 0 -i 1 -k MAC
r -t 0.086145739 -s 4 -d 4 -p udp -e 520 -c 2 -a 0 -i 1 -k MAC
+ -t 0.086155739 -s 4 -d -1 -p ACK -e 38 -c 2 -a 0 -i 0 -k MAC 
- -t 0.086155739 -s 4 -d -1 -p ACK -e 38 -c 2 -a 0 -i 0 -k MAC
h -t 0.086155739 -s 4 -d -1 -p ACK -e 38 -c 2 -a 0 -i 0 -k MAC
r -t 0.086170739 -s 4 -d 4 -p udp -e 520 -c 2 -a 0 -i 1 -k AGT
v -t 0.0861707393415438 -e sim_annotation 0.0861707393415438 2 4 received {Ypos=500.000000}
r -t 0.086460406 -s 3 -d -1 -p ACK -e 38 -c 2 -a 0 -i 0 -k MAC
+ -t 0.100000000 -s 0 -d -1 -p udp -e 500 -c 2 -a 0 -i 2 -k AGT 
- -t 0.100000000 -s 0 -d -1 -p udp -e 500 -c 2 -a 0 -i 2 -k AGT
h -t 0.100000000 -s 0 -d -1 -p udp -e 500 -c 2 -a 0 -i 2 -k AGT
+ -t 0.100000000 -s 0 -d -1 -p udp -e 500 -c 2 -a 0 -i 3 -k AGT 
- -t 0.100000000 -s 0 -d -1 -p udp -e 500 -c 2 -a 0 -i 3 -k AGT
h -t 0.100000000 -s 0 -d -1 -p udp -e 500 -c 2 -a 0 -i 3 -k AGT
+ -t 0.100000000 -s 0 -d -1 -p udp -e 500 -c 2 -a 0 -i 4 -k AGT 
- -t 0.100000000 -s 0 -d -1 -p udp -e 500 -c 2 -a 0 -i 4 -k AGT
h -t 0.100000000 -s 0 -d -1 -p udp -e 500 -c 2 -a 0 -i 4 -k AGT
+ -t 0.100000000 -s 0 -d -1 -p udp -e 500 -c 2 -a 0 -i 5 -k AGT 
- -t 0.100000000 -s 0 -d -1 -p udp -e 500 -c 2 -a 0 -i 5 -k AGT
h -t 0.100000000 -s 0 -d -1 -p udp -e 500 -c 2 -a 0 -i 5 -k AGT
+ -t 0.100000000 -s 0 -d 1 -p udp -e 520 -c 2 -a 0 -i 2 -k RTR 
- -t 0.100000000 -s 0 -d 1 -p udp -e 520 -c 2 -a 0 -i 2 -k RTR
h -t 0.100000000 -s 0 -d 1 -p udp -e 520 -c 2 -a 0 -i 2 -k RTR
+ -t 0.100000000 -s 0 -d 1 -p udp -e 520 -c 2 -a 0 -i 3 -k RTR 
- -t 0.100000000 -s 0 -d 1 -p udp -e 520 -c 2 -a 0 -i 3 -k RTR
h -t 0.100000000 -s 0 -d 1 -p udp -e 520 -c 2 -a 0 -i 3 -k RTR
+ -t 0.100000000 -s 0 -d 1 -p udp -e 520 -c 2 -a 0 -i 4 -k RTR 
- -t 0.100000000 -s 0 -d 1 -p udp -e 520 -c 2 -a 0 -i 4 -k RTR
h -t 0.100000000 -s 0 -d 1 -p udp -e 520 -c 2 -a 0 -i 4 -k RTR
+ -t 0.100000000 -s 0 -d 1 -p udp -e 520 -c 2 -a 0 -i 5 -k RTR 
- -t 0.100000000 -s 0 -d 1 -p udp -e 520 -c 2 -a 0 -i 5 -k RTR
h -t 0.100000000 -s 0 -d 1 -p udp -e 520 -c 2 -a 0 -i 5 -k RTR
+ -t 0.100555000 -s 0 -d -1 -p RTS -e 44 -c 2 -a 0 -i 0 -k MAC 
- -t 0.100555000 -s 0 -d -1 -p RTS -e 44 -c 2 -a 0 -i 0 -k MAC
h -t 0.100555000 -s 0 -d -1 -p RTS -e 44 -c 2 -a 0 -i 0 -k MAC
r -t 0.100907735 -s 1 -d -1 -p RTS -e 44 -c 2 -a 0 -i 0 -k MAC
+ -t 0.100917735 -s 1 -d -1 -p CTS -e 38 -c 2 -a 0 -i 0 -k MAC 
- -t 0.100917735 -s 1 -d -1 -p CTS -e 38 -c 2 -a 0 -i 0 -k MAC
h -t 0.100917735 -s 1 -d -1 -p CTS -e 38 -c 2 -a 0 -i 0 -k MAC
r -t 0.101222470 -s 0 -d -1 -p CTS -e 38 -c 2 -a 0 -i 0 -k MAC
+ -t 0.101232470 -s 0 -d 1 -p udp -e 578 -c 2 -a 0 -i 2 -k MAC 
- -t 0.101232470 -s 0 -d 1 -p udp -e 578 -c 2 -a 0 -i 2 -k MAC
h -t 0.101232470 -s 0 -d 1 -p udp -e 578 -c 2 -a 0 -i 2 -k MAC
r -t 0.105857205 -s 1 -d 1 -p udp -e 520 -c 2 -a 0 -i 2 -k MAC
+ -t 0.105867205 -s 1 -d -1 -p ACK -e 38 -c 2 -a 0 -i 0 -k MAC 
- -t 0.105867205 -s 1 -d -1 -p ACK -e 38 -c 2 -a 0 -i 0 -k MAC
h -t 0.105867205 -s 1 -d -1 -p ACK -e 38 -c 2 -a 0 -i 0 -k MAC
+ -t 0.105882205 -s 1 -d 2 -p udp -e 520 -c 2 -a 0 -i 2 -k RTR 
- -t 0.105882205 -s 1 -d 2 -p udp -e 520 -c 2 -a 0 -i 2 -k RTR
h -t 0.105882205 -s 1 -d 2 -p udp -e 520 -c 2 -a 0 -i 2 -k RTR
r -t 0.106171939 -s 0 -d -1 -p ACK -e 38 -c 2 -a 0 -i 0 -k MAC
+ -t 0.106221205 -s 1 -d -1 -p RTS -e 44 -c 2 -a 0 -i 0 -k MAC 
- -t 0.106221205 -s 1 -d -1 -p RTS -e 44 -c 2 -a 0 -i 0 -k MAC
h -t 0.106221205 -s 1 -d -1 -p RTS -e 44 -c 2 -a 0 -i 0 -k MAC
r -t 0.106573871 -s 2 -d -1 -p RTS -e 44 -c 2 -a 0 -i 0 -k MAC
+ -t 0.106583871 -s 2 -d -1 -p CTS -e 38 -c 2 -a 0 -i 0 -k MAC 
- -t 0.106583871 -s 2 -d -1 -p CTS -e 38 -c 2 -a 0 -i 0 -k MAC
h -t 0.106583871 -s 2 -d -1 -p CTS -e 38 -c 2 -a 0 -i 0 -k MAC
r -t 0.106888538 -s 1 -d -1 -p CTS -e 38 -c 2 -a 0 -i 0 -k MAC
+ -t 0.106898538 -s 1 -d 2 -p udp -e 578 -c 2 -a 0 -i 2 -k MAC 
- -t 0.106898538 -s 1 -d 2 -p udp -e 578 -c 2 -a 0 -i 2 -k MAC
h -t 0.106898538 -s 1 -d 2 -p udp -e 578 -c 2 -a 0 -i 2 -k MAC
+ -t 0.110000000 -s 0 -d -1 -p udp -e 500 -c 2 -a 0 -i 6 -k AGT 
- -t 0.110000000 -s 0 -d -1 -p udp -e 500 -c 2 -a 0 -i 6 -k AGT
h -t 0.110000000 -s 0 -d -1 -p udp -e 500 -c 2 -a 0 -i 6 -k AGT
+ -t 0.110000000 -s 0 -d -1 -p udp -e 500 -c 2 -a 0 -i 7 -k AGT 
- -t 0.110000000 -s 0 -d -1 -p udp -e 500 -c 2 -a 0 -i 7 -k AGT
h -t 0.110000000 -s 0 -d -1 -p udp -e 500 -c 2 -a 0 -i 7 -k AGT
+ -t 0.110000000 -s 0 -d 1 -p udp -e 520 -c 2 -a 0 -i 6 -k RTR 
- -t 0.110000000 -s 0 -d 1 -p udp -e 520 -c 2 -a 0 -i 6 -k RTR
h -t 0.110000000 -s 0 -d 1 -p udp -e 520 -c 2 -a 0 -i 6 -k RTR
+ -t 0.110000000 -s 0 -d 1 -p udp -e 520 -c 2 -a 0 -i 7 -k RTR 
- -t 0.110000000 -s 0 -d 1 -p udp -e 520 -c 2 -a 0 -i 7 -k RTR
h -t 0.110000000 -s 0 -d 1 -p udp -e 520 -c 2 -a 0 -i 7 -k RTR
r -t 0.111523205 -s 2 -d 2 -p udp -e 520 -c 2 -a 0 -i 2 -k MAC
+ -t 0.111533205 -s 2 -d -1 -p ACK -e 38 -c 2 -a 0 -i 0 -k MAC 
- -t 0.111533205 -s 2 -d -1 -p ACK -e 38 -c 2 -a 0 -i 0 -k MAC
h -t 0.111533205 -s 2 -d -1 -p ACK -e 38 -c 2 -a 0 -i 0 -k MAC
+ -t 0.111548205 -s 2 -d 3 -p udp -e 520 -c 2 -a 0 -i 2 -k RTR 
- -t 0.111548205 -s 2 -d 3 -p udp -e 520 -c 2 -a 0 -i 2 -k RTR
h -t 0.111548205 -s 2 -d 3 -p udp -e 520 -c 2 -a 0 -i 2 -k RTR
r -t 0.111837871 -s 1 -d -1 -p ACK -e 38 -c 2 -a 0 -i 0 -k MAC
+ -t 0.112207205 -s 2 -d -1 -p RTS -e 44 -c 2 -a 0 -i 0 -k MAC 
- -t 0.112207205 -s 2 -d -1 -p RTS -e 44 -c 2 -a 0 -i 0 -k MAC
h -t 0.112207205 -s 2 -d -1 -p RTS -e 44 -c 2 -a 0 -i 0 -k MAC
r -t 0.112559871 -s 3 -d -1 -p RTS -e 44 -c 2 -a 0 -i 0 -k MAC
+ -t 0.112569871 -s 3 -d -1 -p CTS -e 38 -c 2 -a 0 -i 0 -k MAC 
- -t 0.112569871 -s 3 -d -1 -p CTS -e 38 -c 2 -a 0 -i 0 -k MAC
h -t 0.112569871 -s 3 -d -1 -p CTS -e 38 -c 2 -a 0 -i 0 -k MAC
r -t 0.112874538 -s 2 -d -1 -p CTS -e 38 -c 2 -a 0 -i 0 -k MAC
+ -t 0.112884538 -s 2 -d 3 -p udp -e 578 -c 2 -a 0 -i 2 -k MAC 
- -t 0.112884538 -s 2 -d 3 -p udp -e 578 -c 2 -a 0 -i 2 -k MAC
h -t 0.112884538 -s 2 -d 3 -p udp -e 578 -c 2 -a 0 -i 2 -k MAC
r -t 0.117509205 -s 3 -d 3 -p udp -e 520 -c 2 -a 0 -i 2 -k MAC
+ -t 0.117519205 -s 3 -d -1 -p ACK -e 38 -c 2 -a 0 -i 0 -k MAC 
- -t 0.117519205 -s 3 -d -1 -p ACK -e 38 -c 2 -a 0 -i 0 -k MAC
h -t 0.117519205 -s 3 -d -1 -p ACK -e 38 -c 2 -a 0 -i 0 -k MAC
+ -t 0.117534205 -s 3 -d 4 -p udp -e 520 -c 2 -a 0 -i 2 -k RTR 
- -t 0.117534205 -s 3 -d 4 -p udp -e 520 -c 2 -a 0 -i 2 -k RTR
h -t 0.117534205 -s 3 -d 4 -p udp -e 520 -c 2 -a 0 -i 2 -k RTR
r -t 0.117823871 -s 2 -d -1 -p ACK -e 38 -c 2 -a 0 -i 0 -k MAC