n -t * -s 0  -x 300 -y 500 -Z 0 -z 20  -v circle -c black
n -t * -s 1  -x 500 -y 600 -Z 0 -z 20  -v circle -c black
n -t * -s 2  -x 700 -y 600 -Z 0 -z 20  -v circle -c black
V -t * -v 1.0a5 -a 0
W -t * -x 1156 -y 400
A -t * -n 1 -p 0 -o 0x7fffffff -c 30 -a 1
A -t * -h 1 -m 1073741823 -s 0
c -t * -i 0 -n blue
c -t * -i 1 -n red
