M 0.20000 0 (200.00, 400.00, 0.00), (300.00, 400.00), 50.00
s 1.000000000 _0_ AGT  --- 0 cbr 1000 [0 0 0 0] ------- [0:0 2:0 32 0] [0] 0 0
r 1.000000000 _0_ RTR  --- 0 cbr 1000 [0 0 0 0] ------- [0:0 2:0 32 0] [0] 0 0
s 1.000000000 _0_ RTR  --- 0 AODV 48 [0 0 0 0] ------- [0:255 -1:255 30 0] [0x2 1 1 [2 0] [0 4]] (REQUEST)
s 1.000535000 _0_ MAC  --- 0 AODV 106 [0 ffffffff 0 800] ------- [0:255 -1:255 30 0] [0x2 1 1 [2 0] [0 4]] (REQUEST)
r 1.001383629 _1_ MAC  --- 0 AODV 48 [0 ffffffff 0 800] ------- [0:255 -1:255 30 0] [0x2 1 1 [2 0] [0 4]] (REQUEST)
r 1.001408629 _1_ RTR  --- 0 AODV 48 [0 ffffffff 0 800] ------- [0:255 -1:255 30 0] [0x2 1 1 [2 0] [0 4]] (REQUEST)
s 1.001550675 _1_ RTR  --- 0 AODV 48 [0 ffffffff 0 800] ------- [1:255 -1:255 29 0] [0x2 2 1 [2 0] [0 4]] (REQUEST)
s 1.001925675 _1_ MAC  --- 0 AODV 106 [0 ffffffff 1 800] ------- [1:255 -1:255 29 0] [0x2 2 1 [2 0] [0 4]] (REQUEST)
r 1.002774304 _0_ MAC  --- 0 AODV 48 [0 ffffffff 1 800] ------- [1:255 -1:255 29 0] [0x2 2 1 [2 0] [0 4]] (REQUEST)
r 1.002774342 _2_ MAC  --- 0 AODV 48 [0 ffffffff 1 800] ------- [1:255 -1:255 29 0] [0x2 2 1 [2 0] [0 4]] (REQUEST)
r 1.002799304 _0_ RTR  --- 0 AODV 48 [0 ffffffff 1 800] ------- [1:255 -1:255 29 0] [0x2 2 1 [2 0] [0 4]] (REQUEST)
r 1.002799342 _2_ RTR  --- 0 AODV 48 [0 ffffffff 1 800] ------- [1:255 -1:255 29 0] [0x2 2 1 [2 0] [0 4]] (REQUEST)
s 1.002799342 _2_ RTR  --- 0 AODV 44 [0 0 0 0] ------- [2:255 0:255 30 1] [0x4 1 [2 4] 10.000000] (REPLY)
s 1.002854342 _2_ MAC  --- 0 ARP 86 [0 ffffffff 2 806] ------- [REQUEST 2/2 0/1]
r 1.003543009 _1_ MAC  --- 0 ARP 28 [0 ffffffff 2 806] ------- [REQUEST 2/2 0/1]
s 1.003893009 _1_ MAC  --- 0 RTS 44 [52e 2 1 0] 
r 1.004245675 _2_ MAC  --- 0 RTS 44 [52e 2 1 0] 
s 1.004255675 _2_ MAC  --- 0 CTS 38 [3f4 1 0 0] 
r 1.004560342 _1_ MAC  --- 0 CTS 38 [3f4 1 0 0] 
s 1.004570342 _1_ MAC  --- 0 ARP 86 [13a 2 1 806] ------- [REPLY 1/1 2/2]
r 1.005259009 _2_ MAC  --- 0 ARP 28 [13a 2 1 806] ------- [REPLY 1/1 2/2]
s 1.005269009 _2_ MAC  --- 0 ACK 38 [0 1 0 0] 
r 1.005573675 _1_ MAC  --- 0 ACK 38 [0 1 0 0] 
s 1.005823009 _2_ MAC  --- 0 RTS 44 [5ae 1 2 0] 
r 1.006175675 _1_ MAC  --- 0 RTS 44 [5ae 1 2 0] 
s 1.006185675 _1_ MAC  --- 0 CTS 38 [474 2 0 0] 
r 1.006490342 _2_ MAC  --- 0 CTS 38 [474 2 0 0] 
s 1.006500342 _2_ MAC  --- 0 AODV 102 [13a 1 2 800] ------- [2:255 0:255 30 1] [0x4 1 [2 4] 10.000000] (REPLY)
r 1.007317009 _1_ MAC  --- 0 AODV 44 [13a 1 2 800] ------- [2:255 0:255 30 1] [0x4 1 [2 4] 10.000000] (REPLY)
s 1.007327009 _1_ MAC  --- 0 ACK 38 [0 2 0 0] 
r 1.007342009 _1_ RTR  --- 0 AODV 44 [13a 1 2 800] ------- [2:255 0:255 30 1] [0x4 1 [2 4] 10.000000] (REPLY)
f 1.007342009 _1_ RTR  --- 0 AODV 44 [13a 1 2 800] ------- [2:255 0:255 29 0] [0x4 2 [2 4] 10.000000] (REPLY)
r 1.007631675 _2_ MAC  --- 0 ACK 38 [0 2 0 0] 
s 1.007741009 _1_ MAC  --- 0 ARP 86 [0 ffffffff 1 806] ------- [REQUEST 1/1 0/0]
s 1.008000000 _0_ AGT  --- 1 cbr 1000 [0 0 0 0] ------- [0:0 2:0 32 0] [1] 0 0
r 1.008000000 _0_ RTR  --- 1 cbr 1000 [0 0 0 0] ------- [0:0 2:0 32 0] [1] 0 0
r 1.008429637 _0_ MAC  --- 0 ARP 28 [0 ffffffff 1 806] ------- [REQUEST 1/1 0/0]
r 1.008429675 _2_ MAC  --- 0 ARP 28 [0 ffffffff 1 806] ------- [REQUEST 1/1 0/0]
s 1.008724637 _0_ MAC  --- 0 RTS 44 [52e 1 0 0] 
r 1.009077264 _1_ MAC  --- 0 RTS 44 [52e 1 0 0] 
s 1.009087264 _1_ MAC  --- 0 CTS 38 [3f4 0 0 0] 
r 1.009391892 _0_ MAC  --- 0 CTS 38 [3f4 0 0 0] 
s 1.009401892 _0_ MAC  --- 0 ARP 86 [13a 1 0 806] ------- [REPLY 0/0 1/1]
r 1.010090520 _1_ MAC  --- 0 ARP 28 [13a 1 0 806] ------- [REPLY 0/0 1/1]
s 1.010100520 _1_ MAC  --- 0 ACK 38 [0 0 0 0] 
r 1.010405147 _0_ MAC  --- 0 ACK 38 [0 0 0 0] 
s 1.010474520 _1_ MAC  --- 0 RTS 44 [5ae 0 1 0] 
r 1.010827147 _0_ MAC  --- 0 RTS 44 [5ae 0 1 0] 
s 1.010837147 _0_ MAC  --- 0 CTS 38 [474 1 0 0] 
r 1.011141774 _1_ MAC  --- 0 CTS 38 [474 1 0 0] 
s 1.011151774 _1_ MAC  --- 0 AODV 102 [13a 0 1 800] ------- [2:255 0:255 29 0] [0x4 2 [2 4] 10.000000] (REPLY)
r 1.011968402 _0_ MAC  --- 0 AODV 44 [13a 0 1 800] ------- [2:255 0:255 29 0] [0x4 2 [2 4] 10.000000] (REPLY)
s 1.011978402 _0_ MAC  --- 0 ACK 38 [0 1 0 0] 
r 1.011993402 _0_ RTR  --- 0 AODV 44 [13a 0 1 800] ------- [2:255 0:255 29 0] [0x4 2 [2 4] 10.000000] (REPLY)
s 1.011993402 _0_ RTR  --- 0 cbr 1020 [0 0 0 0] ------- [0:0 2:0 30 1] [0] 0 0
r 1.012283029 _1_ MAC  --- 0 ACK 38 [0 1 0 0] 
s 1.012372402 _0_ MAC  --- 0 RTS 44 [242e 1 0 0] 
r 1.012725029 _1_ MAC  --- 0 RTS 44 [242e 1 0 0] 
s 1.012735029 _1_ MAC  --- 0 CTS 38 [22f4 0 0 0] 
r 1.013039656 _0_ MAC  --- 0 CTS 38 [22f4 0 0 0] 
s 1.013049656 _0_ MAC  --- 0 cbr 1078 [13a 1 0 800] ------- [0:0 2:0 30 1] [0] 0 0
s 1.016000000 _0_ AGT  --- 2 cbr 1000 [0 0 0 0] ------- [0:0 2:0 32 0] [2] 0 0
r 1.016000000 _0_ RTR  --- 2 cbr 1000 [0 0 0 0] ------- [0:0 2:0 32 0] [2] 0 0
s 1.016000000 _0_ RTR  --- 2 cbr 1020 [0 0 0 0] ------- [0:0 2:0 30 1] [2] 0 0
r 1.021674283 _1_ MAC  --- 0 cbr 1020 [13a 1 0 800] ------- [0:0 2:0 30 1] [0] 1 0
s 1.021684283 _1_ MAC  --- 0 ACK 38 [0 0 0 0] 
r 1.021699283 _1_ RTR  --- 0 cbr 1020 [13a 1 0 800] ------- [0:0 2:0 30 1] [0] 1 0
f 1.021699283 _1_ RTR  --- 0 cbr 1020 [13a 1 0 800] ------- [0:0 2:0 29 2] [0] 1 0
r 1.021988909 _0_ MAC  --- 0 ACK 38 [0 0 0 0] 
s 1.021993402 _0_ RTR  --- 1 cbr 1020 [0 0 0 0] ------- [0:0 2:0 30 1] [1] 0 0
s 1.022198909 _0_ MAC  --- 0 RTS 44 [242e 1 0 0] 
r 1.022551535 _1_ MAC  --- 0 RTS 44 [242e 1 0 0] 
s 1.022561535 _1_ MAC  --- 0 CTS 38 [22f4 0 0 0] 
r 1.022866161 _0_ MAC  --- 0 CTS 38 [22f4 0 0 0] 
s 1.022876161 _0_ MAC  --- 2 cbr 1078 [13a 1 0 800] ------- [0:0 2:0 30 1] [2] 0 0
s 1.024000000 _0_ AGT  --- 3 cbr 1000 [0 0 0 0] ------- [0:0 2:0 32 0] [3] 0 0
r 1.024000000 _0_ RTR  --- 3 cbr 1000 [0 0 0 0] ------- [0:0 2:0 32 0] [3] 0 0
s 1.024000000 _0_ RTR  --- 3 cbr 1020 [0 0 0 0] ------- [0:0 2:0 30 1] [3] 0 0
r 1.031500786 _1_ MAC  --- 2 cbr 1020 [13a 1 0 800] ------- [0:0 2:0 30 1] [2] 1 0
s 1.031510786 _1_ MAC  --- 0 ACK 38 [0 0 0 0] 
r 1.031525786 _1_ RTR  --- 2 cbr 1020 [13a 1 0 800] ------- [0:0 2:0 30 1] [2] 1 0
f 1.031525786 _1_ RTR  --- 2 cbr 1020 [13a 1 0 800] ------- [0:0 2:0 29 2] [2] 1 0
r 1.031815411 _0_ MAC  --- 0 ACK 38 [0 0 0 0] 
s 1.032000000 _0_ AGT  --- 4 cbr 1000 [0 0 0 0] ------- [0:0 2:0 32 0] [4] 0 0
r 1.032000000 _0_ RTR  --- 4 cbr 1000 [0 0 0 0] ------- [0:0 2:0 32 0] [4] 0 0
s 1.032000000 _0_ RTR  --- 4 cbr 1020 [0 0 0 0] ------- [0:0 2:0 30 1] [4] 0 0
s 1.032224786 _1_ MAC  --- 0 RTS 44 [242e 2 1 0] 
r 1.032577453 _2_ MAC  --- 0 RTS 44 [242e 2 1 0] 
s 1.032587453 _2_ MAC  --- 0 CTS 38 [22f4 1 0 0] 
r 1.032892120 _1_ MAC  --- 0 CTS 38 [22f4 1 0 0] 
s 1.032902120 _1_ MAC  --- 0 cbr 1078 [13a 2 1 800] ------- [0:0 2:0 29 2] [0] 1 0
s 1.040000000 _0_ AGT  --- 5 cbr 1000 [0 0 0 0] ------- [0:0 2:0 32 0] [5] 0 0
r 1.040000000 _0_ RTR  --- 5 cbr 1000 [0 0 0 0] ------- [0:0 2:0 32 0] [5] 0 0
s 1.040000000 _0_ RTR  --- 5 cbr 1020 [0 0 0 0] ------- [0:0 2:0 30 1] [5] 0 0
r 1.041526786 _2_ MAC  --- 0 cbr 1020 [13a 2 1 800] ------- [0:0 2:0 29 2] [0] 2 0
s 1.041536786 _2_ MAC  --- 0 ACK 38 [0 1 0 0] 
r 1.041551786 _2_ AGT  --- 0 cbr 1020 [13a 2 1 800] ------- [0:0 2:0 29 2] [0] 2 0
r 1.041841453 _1_ MAC  --- 0 ACK 38 [0 1 0 0] 
s 1.042131453 _1_ MAC  --- 0 RTS 44 [242e 2 1 0] 
r 1.042484120 _2_ MAC  --- 0 RTS 44 [242e 2 1 0] 
s 1.042494120 _2_ MAC  --- 0 CTS 38 [22f4 1 0 0] 
r 1.042798786 _1_ MAC  --- 0 CTS 38 [22f4 1 0 0] 
s 1.042808786 _1_ MAC  --- 2 cbr 1078 [13a 2 1 800] ------- [0:0 2:0 29 2] [2] 1 0
s 1.048000000 _0_ AGT  --- 6 cbr 1000 [0 0 0 0] ------- [0:0 2:0 32 0] [6] 0 0
r 1.048000000 _0_ RTR  --- 6 cbr 1000 [0 0 0 0] ------- [0:0 2:0 32 0] [6] 0 0
s 1.048000000 _0_ RTR  --- 6 cbr 1020 [0 0 0 0] ------- [0:0 2:0 30 1] [6] 0 0
r 1.051433453 _2_ MAC  --- 2 cbr 1020 [13a 2 1 800] ------- [0:0 2:0 29 2] [2] 2 0
s 1.051443453 _2_ MAC  --- 0 ACK 38 [0 1 0 0] 
r 1.051458453 _2_ AGT  --- 2 cbr 1020 [13a 2 1 800] ------- [0:0 2:0 29 2] [2] 2 0
r 1.051748120 _1_ MAC  --- 0 ACK 38 [0 1 0 0] 
s 1.052182690 _0_ MAC  --- 0 RTS 44 [242e 1 0 0] 
r 1.052535312 _1_ MAC  --- 0 RTS 44 [242e 1 0 0] 
s 1.052545312 _1_ MAC  --- 0 CTS 38 [22f4 0 0 0] 
r 1.052849933 _0_ MAC  --- 0 CTS 38 [22f4 0 0 0] 
s 1.052859933 _0_ MAC  --- 1 cbr 1078 [13a 1 0 800] ------- [0:0 2:0 30 1] [1] 0 0
s 1.056000000 _0_ AGT  --- 7 cbr 1000 [0 0 0 0] ------- [0:0 2:0 32 0] [7] 0 0
r 1.056000000 _0_ RTR  --- 7 cbr 1000 [0 0 0 0] ------- [0:0 2:0 32 0] [7] 0 0
s 1.056000000 _0_ RTR  --- 7 cbr 1020 [0 0 0 0] ------- [0:0 2:0 30 1] [7] 0 0
r 1.061484555 _1_ MAC  --- 1 cbr 1020 [13a 1 0 800] ------- [0:0 2:0 30 1] [1] 1 0
s 1.061494555 _1_ MAC  --- 0 ACK 38 [0 0 0 0] 
r 1.061509555 _1_ RTR  --- 1 cbr 1020 [13a 1 0 800] ------- [0:0 2:0 30 1] [1] 1 0
f 1.061509555 _1_ RTR  --- 1 cbr 1020 [13a 1 0 800] ------- [0:0 2:0 29 2] [1] 1 0
r 1.061799175 _0_ MAC  --- 0 ACK 38 [0 0 0 0] 
s 1.062189175 _0_ MAC  --- 0 RTS 44 [242e 1 0 0] 
r 1.062541795 _1_ MAC  --- 0 RTS 44 [242e 1 0 0] 
s 1.062551795 _1_ MAC  --- 0 CTS 38 [22f4 0 0 0] 
r 1.062856415 _0_ MAC  --- 0 CTS 38 [22f4 0 0 0] 
s 1.062866415 _0_ MAC  --- 3 cbr 1078 [13a 1 0 800] ------- [0:0 2:0 30 1] [3] 0 0
s 1.064000000 _0_ AGT  --- 8 cbr 1000 [0 0 0 0] ------- [0:0 2:0 32 0] [8] 0 0
r 1.064000000 _0_ RTR  --- 8 cbr 1000 [0 0 0 0] ------- [0:0 2:0 32 0] [8] 0 0
s 1.064000000 _0_ RTR  --- 8 cbr 1020 [0 0 0 0] ------- [0:0 2:0 30 1] [8] 0 0
r 1.071491035 _1_ MAC  --- 3 cbr 1020 [13a 1 0 800] ------- [0:0 2:0 30 1] [3] 1 0
s 1.071501035 _1_ MAC  --- 0 ACK 38 [0 0 0 0] 
r 1.071516035 _1_ RTR  --- 3 cbr 1020 [13a 1 0 800] ------- [0:0 2:0 30 1] [3] 1 0
f 1.071516035 _1_ RTR  --- 3 cbr 1020 [13a 1 0 800] ------- [0:0 2:0 29 2] [3] 1 0
r 1.071805654 _0_ MAC  --- 0 ACK 38 [0 0 0 0] 
s 1.071995035 _1_ MAC  --- 0 RTS 44 [242e 2 1 0] 
s 1.072000000 _0_ AGT  --- 9 cbr 1000 [0 0 0 0] ------- [0:0 2:0 32 0] [9] 0 0
r 1.072000000 _0_ RTR  --- 9 cbr 1000 [0 0 0 0] ------- [0:0 2:0 32 0] [9] 0 0
s 1.072000000 _0_ RTR  --- 9 cbr 1020 [0 0 0 0] ------- [0:0 2:0 30 1] [9] 0 0
r 1.072347702 _2_ MAC  --- 0 RTS 44 [242e 2 1 0] 
s 1.072357702 _2_ MAC  --- 0 CTS 38 [22f4 1 0 0] 
r 1.072662369 _1_ MAC  --- 0 CTS 38 [22f4 1 0 0] 
s 1.072672369 _1_ MAC  --- 1 cbr 1078 [13a 2 1 800] ------- [0:0 2:0 29 2] [1] 1 0
s 1.080000000 _0_ AGT  --- 10 cbr 1000 [0 0 0 0] ------- [0:0 2:0 32 0] [10] 0 0
r 1.080000000 _0_ RTR  --- 10 cbr 1000 [0 0 0 0] ------- [0:0 2:0 32 0] [10] 0 0
s 1.080000000 _0_ RTR  --- 10 cbr 1020 [0 0 0 0] ------- [0:0 2:0 30 1] [10] 0 0
r 1.081297035 _2_ MAC  --- 1 cbr 1020 [13a 2 1 800] ------- [0:0 2:0 29 2] [1] 2 0
s 1.081307035 _2_ MAC  --- 0 ACK 38 [0 1 0 0] 
r 1.081322035 _2_ AGT  --- 1 cbr 1020 [13a 2 1 800] ------- [0:0 2:0 29 2] [1] 2 0
r 1.081611702 _1_ MAC  --- 0 ACK 38 [0 1 0 0] 
s 1.081861702 _1_ MAC  --- 0 RTS 44 [242e 2 1 0] 
r 1.082214369 _2_ MAC  --- 0 RTS 44 [242e 2 1 0] 
s 1.082224369 _2_ MAC  --- 0 CTS 38 [22f4 1 0 0] 
r 1.082529035 _1_ MAC  --- 0 CTS 38 [22f4 1 0 0] 
s 1.082539035 _1_ MAC  --- 3 cbr 1078 [13a 2 1 800] ------- [0:0 2:0 29 2] [3] 1 0
s 1.088000000 _0_ AGT  --- 11 cbr 1000 [0 0 0 0] ------- [0:0 2:0 32 0] [11] 0 0
r 1.088000000 _0_ RTR  --- 11 cbr 1000 [0 0 0 0] ------- [0:0 2:0 32 0] [11] 0 0
s 1.088000000 _0_ RTR  --- 11 cbr 1020 [0 0 0 0] ------- [0:0 2:0 30 1] [11] 0 0
r 1.091163702 _2_ MAC  --- 3 cbr 1020 [13a 2 1 800] ------- [0:0 2:0 29 2] [3] 2 0
s 1.091173702 _2_ MAC  --- 0 ACK 38 [0 1 0 0] 
r 1.091188702 _2_ AGT  --- 3 cbr 1020 [13a 2 1 800] ------- [0:0 2:0 29 2] [3] 2 0
r 1.091478369 _1_ MAC  --- 0 ACK 38 [0 1 0 0] 
s 1.092092933 _0_ MAC  --- 0 RTS 44 [242e 1 0 0] 
r 1.092445549 _1_ MAC  --- 0 RTS 44 [242e 1 0 0] 
s 1.092455549 _1_ MAC  --- 0 CTS 38 [22f4 0 0 0] 
r 1.092760165 _0_ MAC  --- 0 CTS 38 [22f4 0 0 0] 
s 1.092770165 _0_ MAC  --- 4 cbr 1078 [13a 1 0 800] ------- [0:0 2:0 30 1] [4] 0 0
s 1.096000000 _0_ AGT  --- 12 cbr 1000 [0 0 0 0] ------- [0:0 2:0 32 0] [12] 0 0
r 1.096000000 _0_ RTR  --- 12 cbr 1000 [0 0 0 0] ------- [0:0 2:0 32 0] [12] 0 0
s 1.096000000 _0_ RTR  --- 12 cbr 1020 [0 0 0 0] ------- [0:0 2:0 30 1] [12] 0 0
r 1.101394781 _1_ MAC  --- 4 cbr 1020 [13a 1 0 800] ------- [0:0 2:0 30 1] [4] 1 0
s 1.101404781 _1_ MAC  --- 0 ACK 38 [0 0 0 0] 
r 1.101419781 _1_ RTR  --- 4 cbr 1020 [13a 1 0 800] ------- [0:0 2:0 30 1] [4] 1 0
f 1.101419781 _1_ RTR  --- 4 cbr 1020 [13a 1 0 800] ------- [0:0 2:0 29 2] [4] 1 0
r 1.101709395 _0_ MAC  --- 0 ACK 38 [0 0 0 0] 
s 1.101778781 _1_ MAC  --- 0 RTS 44 [242e 2 1 0] 
r 1.102131447 _2_ MAC  --- 0 RTS 44 [242e 2 1 0] 
s 1.102141447 _2_ MAC  --- 0 CTS 38 [22f4 1 0 0] 
r 1.102446114 _1_ MAC  --- 0 CTS 38 [22f4 1 0 0] 
s 1.102456114 _1_ MAC  --- 4 cbr 1078 [13a 2 1 800] ------- [0:0 2:0 29 2] [4] 1 0
s 1.104000000 _0_ AGT  --- 13 cbr 1000 [0 0 0 0] ------- [0:0 2:0 32 0] [13] 0 0
r 1.104000000 _0_ RTR  --- 13 cbr 1000 [0 0 0 0] ------- [0:0 2:0 32 0] [13] 0 0
s 1.104000000 _0_ RTR  --- 13 cbr 1020 [0 0 0 0] ------- [0:0 2:0 30 1] [13] 0 0
r 1.111080781 _2_ MAC  --- 4 cbr 1020 [13a 2 1 800] ------- [0:0 2:0 29 2] [4] 2 0
s 1.111090781 _2_ MAC  --- 0 ACK 38 [0 1 0 0] 
r 1.111105781 _2_ AGT  --- 4 cbr 1020 [13a 2 1 800] ------- [0:0 2:0 29 2] [4] 2 0
r 1.111395447 _1_ MAC  --- 0 ACK 38 [0 1 0 0] 
s 1.112000000 _0_ AGT  --- 14 cbr 1000 [0 0 0 0] ------- [0:0 2:0 32 0] [14] 0 0
r 1.112000000 _0_ RTR  --- 14 cbr 1000 [0 0 0 0] ------- [0:0 2:0 32 0] [14] 0 0
s 1.112000000 _0_ RTR  --- 14 cbr 1020 [0 0 0 0] ------- [0:0 2:0 30 1] [14] 0 0
s 1.112050008 _0_ MAC  --- 0 RTS 44 [242e 1 0 0] 
r 1.112402621 _1_ MAC  --- 0 RTS 44 [242e 1 0 0] 
s 1.112412621 _1_ MAC  --- 0 CTS 38 [22f4 0 0 0] 
r 1.112717234 _0_ MAC  --- 0 CTS 38 [22f4 0 0 0] 
s 1.112727234 _0_ MAC  --- 5 cbr 1078 [13a 1 0 800] ------- [0:0 2:0 30 1] [5] 0 0
s 1.120000000 _0_ AGT  --- 15 cbr 1000 [0 0 0 0] ------- [0:0 2:0 32 0] [15] 0 0
r 1.120000000 _0_ RTR  --- 15 cbr 1000 [0 0 0 0] ------- [0:0 2:0 32 0] [15] 0 0
s 1.120000000 _0_ RTR  --- 15 cbr 1020 [0 0 0 0] ------- [0:0 2:0 30 1] [15] 0 0
r 1.121351848 _1_ MAC  --- 5 cbr 1020 [13a 1 0 800] ------- [0:0 2:0 30 1] [5] 1 0
s 1.121361848 _1_ MAC  --- 0 ACK 38 [0 0 0 0] 
r 1.121376848 _1_ RTR  --- 5 cbr 1020 [13a 1 0 800] ------- [0:0 2:0 30 1] [5] 1 0
f 1.121376848 _1_ RTR  --- 5 cbr 1020 [13a 1 0 800] ------- [0:0 2:0 29 2] [5] 1 0
r 1.121666459 _0_ MAC  --- 0 ACK 38 [0 0 0 0] 
s 1.121895848 _1_ MAC  --- 0 RTS 44 [242e 2 1 0] 
r 1.122248514 _2_ MAC  --- 0 RTS 44 [242e 2 1 0] 
s 1.122258514 _2_ MAC  --- 0 CTS 38 [22f4 1 0 0] 
r 1.122563181 _1_ MAC  --- 0 CTS 38 [22f4 1 0 0] 
s 1.122573181 _1_ MAC  --- 5 cbr 1078 [13a 2 1 800] ------- [0:0 2:0 29 2] [5] 1 0
s 1.128000000 _0_ AGT  --- 16 cbr 1000 [0 0 0 0] ------- [0:0 2:0 32 0] [16] 0 0
r 1.128000000 _0_ RTR  --- 16 cbr 1000 [0 0 0 0] ------- [0:0 2:0 32 0] [16] 0 0
s 1.128000000 _0_ RTR  --- 16 cbr 1020 [0 0 0 0] ------- [0:0 2:0 30 1] [16] 0 0
r 1.131197848 _2_ MAC  --- 5 cbr 1020 [13a 2 1 800] ------- [0:0 2:0 29 2] [5] 2 0
s 1.131207848 _2_ MAC  --- 0 ACK 38 [0 1 0 0] 
r 1.131222848 _2_ AGT  --- 5 cbr 1020 [13a 2 1 800] ------- [0:0 2:0 29 2] [5] 2 0
r 1.131512514 _1_ MAC  --- 0 ACK 38 [0 1 0 0] 
s 1.132347072 _0_ MAC  --- 0 RTS 44 [242e 1 0 0] 
r 1.132699682 _1_ MAC  --- 0 RTS 44 [242e 1 0 0] 
s 1.132709682 _1_ MAC  --- 0 CTS 38 [22f4 0 0 0] 
r 1.133014293 _0_ MAC  --- 0 CTS 38 [22f4 0 0 0] 
s 1.133024293 _0_ MAC  --- 6 cbr 1078 [13a 1 0 800] ------- [0:0 2:0 30 1] [6] 0 0
s 1.136000000 _0_ AGT  --- 17 cbr 1000 [0 0 0 0] ------- [0:0 2:0 32 0] [17] 0 0
r 1.136000000 _0_ RTR  --- 17 cbr 1000 [0 0 0 0] ------- [0:0 2:0 32 0] [17] 0 0
s 1.136000000 _0_ RTR  --- 17 cbr 1020 [0 0 0 0] ------- [0:0 2:0 30 1] [17] 0 0
r 1.141648903 _1_ MAC  --- 6 cbr 1020 [13a 1 0 800] ------- [0:0 2:0 30 1] [6] 1 0
s 1.141658903 _1_ MAC  --- 0 ACK 38 [0 0 0 0] 
r 1.141673903 _1_ RTR  --- 6 cbr 1020 [13a 1 0 800] ------- [0:0 2:0 30 1] [6] 1 0
f 1.141673903 _1_ RTR  --- 6 cbr 1020 [13a 1 0 800] ------- [0:0 2:0 29 2] [6] 1 0
r 1.141963512 _0_ MAC  --- 0 ACK 38 [0 0 0 0] 
s 1.142373512 _0_ MAC  --- 0 RTS 44 [242e 1 0 0] 
r 1.142726121 _1_ MAC  --- 0 RTS 44 [242e 1 0 0] 
s 1.142736121 _1_ MAC  --- 0 CTS 38 [22f4 0 0 0] 
r 1.143040730 _0_ MAC  --- 0 CTS 38 [22f4 0 0 0] 
s 1.143050730 _0_ MAC  --- 7 cbr 1078 [13a 1 0 800] ------- [0:0 2:0 30 1] [7] 0 0
s 1.144000000 _0_ AGT  --- 18 cbr 1000 [0 0 0 0] ------- [0:0 2:0 32 0] [18] 0 0
r 1.144000000 _0_ RTR  --- 18 cbr 1000 [0 0 0 0] ------- [0:0 2:0 32 0] [18] 0 0
s 1.144000000 _0_ RTR  --- 18 cbr 1020 [0 0 0 0] ------- [0:0 2:0 30 1] [18] 0 0
r 1.151675339 _1_ MAC  --- 7 cbr 1020 [13a 1 0 800] ------- [0:0 2:0 30 1] [7] 1 0
s 1.151685339 _1_ MAC  --- 0 ACK 38 [0 0 0 0] 
r 1.151700339 _1_ RTR  --- 7 cbr 1020 [13a 1 0 800] ------- [0:0 2:0 30 1] [7] 1 0
f 1.151700339 _1_ RTR  --- 7 cbr 1020 [13a 1 0 800] ------- [0:0 2:0 29 2] [7] 1 0
r 1.151989946 _0_ MAC  --- 0 ACK 38 [0 0 0 0] 
s 1.152000000 _0_ AGT  --- 19 cbr 1000 [0 0 0 0] ------- [0:0 2:0 32 0] [19] 0 0
r 1.152000000 _0_ RTR  --- 19 cbr 1000 [0 0 0 0] ------- [0:0 2:0 32 0] [19] 0 0
s 1.152000000 _0_ RTR  --- 19 cbr 1020 [0 0 0 0] ------- [0:0 2:0 30 1] [19] 0 0
s 1.152079946 _0_ MAC  --- 0 RTS 44 [242e 1 0 0] 
r 1.152432554 _1_ MAC  --- 0 RTS 44 [242e 1 0 0] 
s 1.152442554 _1_ MAC  --- 0 CTS 38 [22f4 0 0 0] 
r 1.152747161 _0_ MAC  --- 0 CTS 38 [22f4 0 0 0] 
s 1.152757161 _0_ MAC  --- 8 cbr 1078 [13a 1 0 800] ------- [0:0 2:0 30 1] [8] 0 0
s 1.160000000 _0_ AGT  --- 20 cbr 1000 [0 0 0 0] ------- [0:0 2:0 32 0] [20] 0 0
r 1.160000000 _0_ RTR  --- 20 cbr 1000 [0 0 0 0] ------- [0:0 2:0 32 0] [20] 0 0
s 1.160000000 _0_ RTR  --- 20 cbr 1020 [0 0 0 0] ------- [0:0 2:0 30 1] [20] 0 0
r 1.161381769 _1_ MAC  --- 8 cbr 1020 [13a 1 0 800] ------- [0:0 2:0 30 1] [8] 1 0
s 1.161391769 _1_ MAC  --- 0 ACK 38 [0 0 0 0] 
r 1.161406769 _1_ RTR  --- 8 cbr 1020 [13a 1 0 800] ------- [0:0 2:0 30 1] [8] 1 0
f 1.161406769 _1_ RTR  --- 8 cbr 1020 [13a 1 0 800] ------- [0:0 2:0 29 2] [8] 1 0
r 1.161696375 _0_ MAC  --- 0 ACK 38 [0 0 0 0] 
s 1.161885769 _1_ MAC  --- 0 RTS 44 [242e 2 1 0] 
r 1.162238435 _2_ MAC  --- 0 RTS 44 [242e 2 1 0] 
s 1.162248435 _2_ MAC  --- 0 CTS 38 [22f4 1 0 0] 
r 1.162553102 _1_ MAC  --- 0 CTS 38 [22f4 1 0 0] 
s 1.162563102 _1_ MAC  --- 6 cbr 1078 [13a 2 1 800] ------- [0:0 2:0 29 2] [6] 1 0
s 1.168000000 _0_ AGT  --- 21 cbr 1000 [0 0 0 0] ------- [0:0 2:0 32 0] [21] 0 0
r 1.168000000 _0_ RTR  --- 21 cbr 1000 [0 0 0 0] ------- [0:0 2:0 32 0] [21] 0 0
s 1.168000000 _0_ RTR  --- 21 cbr 1020 [0 0 0 0] ------- [0:0 2:0 30 1] [21] 0 0
r 1.171187769 _2_ MAC  --- 6 cbr 1020 [13a 2 1 800] ------- [0:0 2:0 29 2] [6] 2 0
s 1.171197769 _2_ MAC  --- 0 ACK 38 [0 1 0 0] 
r 1.171212769 _2_ AGT  --- 6 cbr 1020 [13a 2 1 800] ------- [0:0 2:0 29 2] [6] 2 0
r 1.171502435 _1_ MAC  --- 0 ACK 38 [0 1 0 0] 
s 1.171912435 _1_ MAC  --- 0 RTS 44 [242e 2 1 0] 
r 1.172265102 _2_ MAC  --- 0 RTS 44 [242e 2 1 0] 
s 1.172275102 _2_ MAC  --- 0 CTS 38 [22f4 1 0 0] 
r 1.172579769 _1_ MAC  --- 0 CTS 38 [22f4 1 0 0] 
s 1.172589769 _1_ MAC  --- 7 cbr 1078 [13a 2 1 800] ------- [0:0 2:0 29 2] [7] 1 0
s 1.176000000 _0_ AGT  --- 22 cbr 1000 [0 0 0 0] ------- [0:0 2:0 32 0] [22] 0 0
r 1.176000000 _0_ RTR  --- 22 cbr 1000 [0 0 0 0] ------- [0:0 2:0 32 0] [22] 0 0
s 1.176000000 _0_ RTR  --- 22 cbr 1020 [0 0 0 0] ------- [0:0 2:0 30 1] [22] 0 0
r 1.181214435 _2_ MAC  --- 7 cbr 1020 [13a 2 1 800] ------- [0:0 2:0 29 2] [7] 2 0
s 1.181224435 _2_ MAC  --- 0 ACK 38 [0 1 0 0] 
r 1.181239435 _2_ AGT  --- 7 cbr 1020 [13a 2 1 800] ------- [0:0 2:0 29 2] [7] 2 0
r 1.181529102 _1_ MAC  --- 0 ACK 38 [0 1 0 0] 
s 1.181719102 _1_ MAC  --- 0 RTS 44 [242e 2 1 0] 
r 1.182071769 _2_ MAC  --- 0 RTS 44 [242e 2 1 0] 
s 1.182081769 _2_ MAC  --- 0 CTS 38 [22f4 1 0 0] 
r 1.182386435 _1_ MAC  --- 0 CTS 38 [22f4 1 0 0] 
s 1.182396435 _1_ MAC  --- 8 cbr 1078 [13a 2 1 800] ------- [0:0 2:0 29 2] [8] 1 0
s 1.184000000 _0_ AGT  --- 23 cbr 1000 [0 0 0 0] ------- [0:0 2:0 32 0] [23] 0 0
r 1.184000000 _0_ RTR  --- 23 cbr 1000 [0 0 0 0] ------- [0:0 2:0 32 0] [23] 0 0
s 1.184000000 _0_ RTR  --- 23 cbr 1020 [0 0 0 0] ------- [0:0 2:0 30 1] [23] 0 0
r 1.191021102 _2_ MAC  --- 8 cbr 1020 [13a 2 1 800] ------- [0:0 2:0 29 2] [8] 2 0
s 1.191031102 _2_ MAC  --- 0 ACK 38 [0 1 0 0] 
r 1.191046102 _2_ AGT  --- 8 cbr 1020 [13a 2 1 800] ------- [0:0 2:0 29 2] [8] 2 0
r 1.191335769 _1_ MAC  --- 0 ACK 38 [0 1 0 0] 
s 1.191930317 _0_ MAC  --- 0 RTS 44 [242e 1 0 0] 
s 1.192000000 _0_ AGT  --- 24 cbr 1000 [0 0 0 0] ------- [0:0 2:0 32 0] [24] 0 0
r 1.192000000 _0_ RTR  --- 24 cbr 1000 [0 0 0 0] ------- [0:0 2:0 32 0] [24] 0 0
s 1.192000000 _0_ RTR  --- 24 cbr 1020 [0 0 0 0] ------- [0:0 2:0 30 1] [24] 0 0
r 1.192282919 _1_ MAC  --- 0 RTS 44 [242e 1 0 0] 
s 1.192292919 _1_ MAC  --- 0 CTS 38 [22f4 0 0 0] 
r 1.192597521 _0_ MAC  --- 0 CTS 38 [22f4 0 0 0] 
s 1.192607521 _0_ MAC  --- 9 cbr 1078 [13a 1 0 800] ------- [0:0 2:0 30 1] [9] 0 0
s 1.200000000 _0_ AGT  --- 25 cbr 1000 [0 0 0 0] ------- [0:0 2:0 32 0] [25] 0 0
r 1.200000000 _0_ RTR  --- 25 cbr 1000 [0 0 0 0] ------- [0:0 2:0 32 0] [25] 0 0
s 1.200000000 _0_ RTR  --- 25 cbr 1020 [0 0 0 0] ------- [0:0 2:0 30 1] [25] 0 0
r 1.201232123 _1_ MAC  --- 9 cbr 1020 [13a 1 0 800] ------- [0:0 2:0 30 1] [9] 1 0
s 1.201242123 _1_ MAC  --- 0 ACK 38 [0 0 0 0] 
r 1.201257123 _1_ RTR  --- 9 cbr 1020 [13a 1 0 800] ------- [0:0 2:0 30 1] [9] 1 0
f 1.201257123 _1_ RTR  --- 9 cbr 1020 [13a 1 0 800] ------- [0:0 2:0 29 2] [9] 1 0
r 1.201546724 _0_ MAC  --- 0 ACK 38 [0 0 0 0] 
s 1.201796724 _0_ MAC  --- 0 RTS 44 [242e 1 0 0] 
r 1.202149324 _1_ MAC  --- 0 RTS 44 [242e 1 0 0] 
s 1.202159324 _1_ MAC  --- 0 CTS 38 [22f4 0 0 0] 
r 1.202463925 _0_ MAC  --- 0 CTS 38 [22f4 0 0 0] 
s 1.202473925 _0_ MAC  --- 10 cbr 1078 [13a 1 0 800] ------- [0:0 2:0 30 1] [10] 0 0
s 1.208000000 _0_ AGT  --- 26 cbr 1000 [0 0 0 0] ------- [0:0 2:0 32 0] [26] 0 0
r 1.208000000 _0_ RTR  --- 26 cbr 1000 [0 0 0 0] ------- [0:0 2:0 32 0] [26] 0 0
s 1.208000000 _0_ RTR  --- 26 cbr 1020 [0 0 0 0] ------- [0:0 2:0 30 1] [26] 0 0
r 1.211098526 _1_ MAC  --- 10 cbr 1020 [13a 1 0 800] ------- [0:0 2:0 30 1] [10] 1 0
s 1.211108526 _1_ MAC  --- 0 ACK 38 [0 0 0 0] 
r 1.211123526 _1_ RTR  --- 10 cbr 1020 [13a 1 0 800] ------- [0:0 2:0 30 1] [10] 1 0
f 1.211123526 _1_ RTR  --- 10 cbr 1020 [13a 1 0 800] ------- [0:0 2:0 29 2] [10] 1 0
r 1.211413125 _0_ MAC  --- 0 ACK 38 [0 0 0 0] 
s 1.211542526 _1_ MAC  --- 0 RTS 44 [242e 2 1 0] 
r 1.211895192 _2_ MAC  --- 0 RTS 44 [242e 2 1 0] 
s 1.211905192 _2_ MAC  --- 0 CTS 38 [22f4 1 0 0] 
r 1.212209859 _1_ MAC  --- 0 CTS 38 [22f4 1 0 0] 
s 1.212219859 _1_ MAC  --- 9 cbr 1078 [13a 2 1 800] ------- [0:0 2:0 29 2] [9] 1 0
s 1.216000000 _0_ AGT  --- 27 cbr 1000 [0 0 0 0] ------- [0:0 2:0 32 0] [27] 0 0
r 1.216000000 _0_ RTR  --- 27 cbr 1000 [0 0 0 0] ------- [0:0 2:0 32 0] [27] 0 0
s 1.216000000 _0_ RTR  --- 27 cbr 1020 [0 0 0 0] ------- [0:0 2:0 30 1] [27] 0 0
r 1.220844526 _2_ MAC  --- 9 cbr 1020 [13a 2 1 800] ------- [0:0 2:0 29 2] [9] 2 0
s 1.220854526 _2_ MAC  --- 0 ACK 38 [0 1 0 0] 
r 1.220869526 _2_ AGT  --- 9 cbr 1020 [13a 2 1 800] ------- [0:0 2:0 29 2] [9] 2 0
r 1.221159192 _1_ MAC  --- 0 ACK 38 [0 1 0 0] 
s 1.221613736 _0_ MAC  --- 0 RTS 44 [242e 1 0 0] 
r 1.221966333 _1_ MAC  --- 0 RTS 44 [242e 1 0 0] 
s 1.221976333 _1_ MAC  --- 0 CTS 38 [22f4 0 0 0] 
r 1.222280931 _0_ MAC  --- 0 CTS 38 [22f4 0 0 0] 
s 1.222290931 _0_ MAC  --- 11 cbr 1078 [13a 1 0 800] ------- [0:0 2:0 30 1] [11] 0 0
s 1.224000000 _0_ AGT  --- 28 cbr 1000 [0 0 0 0] ------- [0:0 2:0 32 0] [28] 0 0
r 1.224000000 _0_ RTR  --- 28 cbr 1000 [0 0 0 0] ------- [0:0 2:0 32 0] [28] 0 0
s 1.224000000 _0_ RTR  --- 28 cbr 1020 [0 0 0 0] ------- [0:0 2:0 30 1] [28] 0 0
r 1.230915529 _1_ MAC  --- 11 cbr 1020 [13a 1 0 800] ------- [0:0 2:0 30 1] [11] 1 0
s 1.230925529 _1_ MAC  --- 0 ACK 38 [0 0 0 0] 
r 1.230940529 _1_ RTR  --- 11 cbr 1020 [13a 1 0 800] ------- [0:0 2:0 30 1] [11] 1 0
f 1.230940529 _1_ RTR  --- 11 cbr 1020 [13a 1 0 800] ------- [0:0 2:0 29 2] [11] 1 0
r 1.231230126 _0_ MAC  --- 0 ACK 38 [0 0 0 0] 
s 1.231399529 _1_ MAC  --- 0 RTS 44 [242e 2 1 0] 
r 1.231752196 _2_ MAC  --- 0 RTS 44 [242e 2 1 0] 
s 1.231762196 _2_ MAC  --- 0 CTS 38 [22f4 1 0 0] 
s 1.232000000 _0_ AGT  --- 29 cbr 1000 [0 0 0 0] ------- [0:0 2:0 32 0] [29] 0 0
r 1.232000000 _0_ RTR  --- 29 cbr 1000 [0 0 0 0] ------- [0:0 2:0 32 0] [29] 0 0
s 1.232000000 _0_ RTR  --- 29 cbr 1020 [0 0 0 0] ------- [0:0 2:0 30 1] [29] 0 0
r 1.232066863 _1_ MAC  --- 0 CTS 38 [22f4 1 0 0] 
s 1.232076863 _1_ MAC  --- 10 cbr 1078 [13a 2 1 800] ------- [0:0 2:0 29 2] [10] 1 0
s 1.240000000 _0_ AGT  --- 30 cbr 1000 [0 0 0 0] ------- [0:0 2:0 32 0] [30] 0 0
r 1.240000000 _0_ RTR  --- 30 cbr 1000 [0 0 0 0] ------- [0:0 2:0 32 0] [30] 0 0
s 1.240000000 _0_ RTR  --- 30 cbr 1020 [0 0 0 0] ------- [0:0 2:0 30 1] [30] 0 0
r 1.240701529 _2_ MAC  --- 10 cbr 1020 [13a 2 1 800] ------- [0:0 2:0 29 2] [10] 2 0
s 1.240711529 _2_ MAC  --- 0 ACK 38 [0 1 0 0] 
r 1.240726529 _2_ AGT  --- 10 cbr 1020 [13a 2 1 800] ------- [0:0 2:0 29 2] [10] 2 0
r 1.241016196 _1_ MAC  --- 0 ACK 38 [0 1 0 0] 
s 1.241266196 _1_ MAC  --- 0 RTS 44 [242e 2 1 0] 
r 1.241618863 _2_ MAC  --- 0 RTS 44 [242e 2 1 0] 
s 1.241628863 _2_ MAC  --- 0 CTS 38 [22f4 1 0 0] 
r 1.241933529 _1_ MAC  --- 0 CTS 38 [22f4 1 0 0] 
s 1.241943529 _1_ MAC  --- 11 cbr 1078 [13a 2 1 800] ------- [0:0 2:0 29 2] [11] 1 0
s 1.248000000 _0_ AGT  --- 31 cbr 1000 [0 0 0 0] ------- [0:0 2:0 32 0] [31] 0 0
r 1.248000000 _0_ RTR  --- 31 cbr 1000 [0 0 0 0] ------- [0:0 2:0 32 0] [31] 0 0
s 1.248000000 _0_ RTR  --- 31 cbr 1020 [0 0 0 0] ------- [0:0 2:0 30 1] [31] 0 0
r 1.250568196 _2_ MAC  --- 11 cbr 1020 [13a 2 1 800] ------- [0:0 2:0 29 2] [11] 2 0
s 1.250578196 _2_ MAC  --- 0 ACK 38 [0 1 0 0] 
r 1.250593196 _2_ AGT  --- 11 cbr 1020 [13a 2 1 800] ------- [0:0 2:0 29 2] [11] 2 0
r 1.250882863 _1_ MAC  --- 0 ACK 38 [0 1 0 0] 
s 1.251417401 _0_ MAC  --- 0 RTS 44 [242e 1 0 0] 
r 1.251769995 _1_ MAC  --- 0 RTS 44 [242e 1 0 0] 
s 1.251779995 _1_ MAC  --- 0 CTS 38 [22f4 0 0 0] 
r 1.252084589 _0_ MAC  --- 0 CTS 38 [22f4 0 0 0] 
s 1.252094589 _0_ MAC  --- 12 cbr 1078 [13a 1 0 800] ------- [0:0 2:0 30 1] [12] 0 0
s 1.256000000 _0_ AGT  --- 32 cbr 1000 [0 0 0 0] ------- [0:0 2:0 32 0] [32] 0 0
r 1.256000000 _0_ RTR  --- 32 cbr 1000 [0 0 0 0] ------- [0:0 2:0 32 0] [32] 0 0
s 1.256000000 _0_ RTR  --- 32 cbr 1020 [0 0 0 0] ------- [0:0 2:0 30 1] [32] 0 0
r 1.260719182 _1_ MAC  --- 12 cbr 1020 [13a 1 0 800] ------- [0:0 2:0 30 1] [12] 1 0
s 1.260729182 _1_ MAC  --- 0 ACK 38 [0 0 0 0] 
r 1.260744182 _1_ RTR  --- 12 cbr 1020 [13a 1 0 800] ------- [0:0 2:0 30 1] [12] 1 0
f 1.260744182 _1_ RTR  --- 12 cbr 1020 [13a 1 0 800] ------- [0:0 2:0 29 2] [12] 1 0
r 1.261033775 _0_ MAC  --- 0 ACK 38 [0 0 0 0] 
s 1.261143775 _0_ MAC  --- 0 RTS 44 [242e 1 0 0] 
r 1.261496367 _1_ MAC  --- 0 RTS 44 [242e 1 0 0] 
s 1.261506367 _1_ MAC  --- 0 CTS 38 [22f4 0 0 0] 
r 1.261810960 _0_ MAC  --- 0 CTS 38 [22f4 0 0 0] 
s 1.261820960 _0_ MAC  --- 13 cbr 1078 [13a 1 0 800] ------- [0:0 2:0 30 1] [13] 0 0
s 1.264000000 _0_ AGT  --- 33 cbr 1000 [0 0 0 0] ------- [0:0 2:0 32 0] [33] 0 0
r 1.264000000 _0_ RTR  --- 33 cbr 1000 [0 0 0 0] ------- [0:0 2:0 32 0] [33] 0 0
s 1.264000000 _0_ RTR  --- 33 cbr 1020 [0 0 0 0] ------- [0:0 2:0 30 1] [33] 0 0
r 1.270445552 _1_ MAC  --- 13 cbr 1020 [13a 1 0 800] ------- [0:0 2:0 30 1] [13] 1 0
s 1.270455552 _1_ MAC  --- 0 ACK 38 [0 0 0 0] 
r 1.270470552 _1_ RTR  --- 13 cbr 1020 [13a 1 0 800] ------- [0:0 2:0 30 1] [13] 1 0
f 1.270470552 _1_ RTR  --- 13 cbr 1020 [13a 1 0 800] ------- [0:0 2:0 29 2] [13] 1 0
r 1.270760143 _0_ MAC  --- 0 ACK 38 [0 0 0 0] 
s 1.270849552 _1_ MAC  --- 0 RTS 44 [242e 2 1 0] 
r 1.271202219 _2_ MAC  --- 0 RTS 44 [242e 2 1 0] 
s 1.271212219 _2_ MAC  --- 0 CTS 38 [22f4 1 0 0] 
r 1.271516886 _1_ MAC  --- 0 CTS 38 [22f4 1 0 0] 
s 1.271526886 _1_ MAC  --- 12 cbr 1078 [13a 2 1 800] ------- [0:0 2:0 29 2] [12] 1 0
s 1.272000000 _0_ AGT  --- 34 cbr 1000 [0 0 0 0] ------- [0:0 2:0 32 0] [34] 0 0
r 1.272000000 _0_ RTR  --- 34 cbr 1000 [0 0 0 0] ------- [0:0 2:0 32 0] [34] 0 0
s 1.272000000 _0_ RTR  --- 34 cbr 1020 [0 0 0 0] ------- [0:0 2:0 30 1] [34] 0 0
s 1.280000000 _0_ AGT  --- 35 cbr 1000 [0 0 0 0] ------- [0:0 2:0 32 0] [35] 0 0
r 1.280000000 _0_ RTR  --- 35 cbr 1000 [0 0 0 0] ------- [0:0 2:0 32 0] [35] 0 0
s 1.280000000 _0_ RTR  --- 35 cbr 1020 [0 0 0 0] ------- [0:0 2:0 30 1] [35] 0 0
r 1.280151552 _2_ MAC  --- 12 cbr 1020 [13a 2 1 800] ------- [0:0 2:0 29 2] [12] 2 0
s 1.280161552 _2_ MAC  --- 0 ACK 38 [0 1 0 0] 
r 1.280176552 _2_ AGT  --- 12 cbr 1020 [13a 2 1 800] ------- [0:0 2:0 29 2] [12] 2 0
r 1.280466219 _1_ MAC  --- 0 ACK 38 [0 1 0 0] 
s 1.280856219 _1_ MAC  --- 0 RTS 44 [242e 2 1 0] 
r 1.281208886 _2_ MAC  --- 0 RTS 44 [242e 2 1 0] 
s 1.281218886 _2_ MAC  --- 0 CTS 38 [22f4 1 0 0] 
r 1.281523552 _1_ MAC  --- 0 CTS 38 [22f4 1 0 0] 
s 1.281533552 _1_ MAC  --- 13 cbr 1078 [13a 2 1 800] ------- [0:0 2:0 29 2] [13] 1 0
s 1.288000000 _0_ AGT  --- 36 cbr 1000 [0 0 0 0] ------- [0:0 2:0 32 0] [36] 0 0
r 1.288000000 _0_ RTR  --- 36 cbr 1000 [0 0 0 0] ------- [0:0 2:0 32 0] [36] 0 0
s 1.288000000 _0_ RTR  --- 36 cbr 1020 [0 0 0 0] ------- [0:0 2:0 30 1] [36] 0 0
r 1.290158219 _2_ MAC  --- 13 cbr 1020 [13a 2 1 800] ------- [0:0 2:0 29 2] [13] 2 0
s 1.290168219 _2_ MAC  --- 0 ACK 38 [0 1 0 0] 
r 1.290183219 _2_ AGT  --- 13 cbr 1020 [13a 2 1 800] ------- [0:0 2:0 29 2] [13] 2 0
r 1.290472886 _1_ MAC  --- 0 ACK 38 [0 1 0 0] 
s 1.290987418 _0_ MAC  --- 0 RTS 44 [242e 1 0 0] 
r 1.291340006 _1_ MAC  --- 0 RTS 44 [242e 1 0 0] 
s 1.291350006 _1_ MAC  --- 0 CTS 38 [22f4 0 0 0] 
r 1.291654594 _0_ MAC  --- 0 CTS 38 [22f4 0 0 0] 
s 1.291664594 _0_ MAC  --- 14 cbr 1078 [13a 1 0 800] ------- [0:0 2:0 30 1] [14] 0 0
s 1.296000000 _0_ AGT  --- 37 cbr 1000 [0 0 0 0] ------- [0:0 2:0 32 0] [37] 0 0
r 1.296000000 _0_ RTR  --- 37 cbr 1000 [0 0 0 0] ------- [0:0 2:0 32 0] [37] 0 0
s 1.296000000 _0_ RTR  --- 37 cbr 1020 [0 0 0 0] ------- [0:0 2:0 30 1] [37] 0 0
r 1.300289183 _1_ MAC  --- 14 cbr 1020 [13a 1 0 800] ------- [0:0 2:0 30 1] [14] 1 0
s 1.300299183 _1_ MAC  --- 0 ACK 38 [0 0 0 0] 