n -t * -s 0  -x 200 -y 400 -Z 0 -z 20  -v circle -c black
n -t * -s 1  -x 400 -y 500 -Z 0 -z 20  -v circle -c black
n -t * -s 2  -x 600 -y 500 -Z 0 -z 20  -v circle -c black
V -t * -v 1.0a5 -a 0
W -t * -x 700 -y 600
A -t * -n 1 -p 0 -o 0x7fffffff -c 30 -a 1
A -t * -h 1 -m 1073741823 -s 0
n -t 0.200000 -s 0 -x 200.000000 -y 400.000000 -U 50.000000 -V 0.000000 -T 2.000000
+ -t 1.000000000 -s 0 -d -1 -p cbr -e 1000 -c 2 -a 0 -i 0 -k AGT 
- -t 1.000000000 -s 0 -d -1 -p cbr -e 1000 -c 2 -a 0 -i 0 -k AGT
h -t 1.000000000 -s 0 -d -1 -p cbr -e 1000 -c 2 -a 0 -i 0 -k AGT
+ -t 1.000000000 -s 0 -d -1 -p AODV -e 48 -c 2 -a 0 -i 0 -k RTR 
- -t 1.000000000 -s 0 -d -1 -p AODV -e 48 -c 2 -a 0 -i 0 -k RTR
h -t 1.000000000 -s 0 -d -1 -p AODV -e 48 -c 2 -a 0 -i 0 -k RTR
+ -t 1.000535000 -s 0 -d -1 -p AODV -e 106 -c 2 -a 0 -i 0 -k MAC 
- -t 1.000535000 -s 0 -d -1 -p AODV -e 106 -c 2 -a 0 -i 0 -k MAC
h -t 1.000535000 -s 0 -d -1 -p AODV -e 106 -c 2 -a 0 -i 0 -k MAC
r -t 1.001383629 -s 1 -d -1 -p AODV -e 48 -c 2 -a 0 -i 0 -k MAC
r -t 1.001408629 -s 1 -d -1 -p AODV -e 48 -c 2 -a 0 -i 0 -k RTR
+ -t 1.001550675 -s 1 -d -1 -p AODV -e 48 -c 2 -a 0 -i 0 -k RTR 
- -t 1.001550675 -s 1 -d -1 -p AODV -e 48 -c 2 -a 0 -i 0 -k RTR
h -t 1.001550675 -s 1 -d -1 -p AODV -e 48 -c 2 -a 0 -i 0 -k RTR
+ -t 1.001925675 -s 1 -d -1 -p AODV -e 106 -c 2 -a 0 -i 0 -k MAC 
- -t 1.001925675 -s 1 -d -1 -p AODV -e 106 -c 2 -a 0 -i 0 -k MAC
h -t 1.001925675 -s 1 -d -1 -p AODV -e 106 -c 2 -a 0 -i 0 -k MAC
r -t 1.002774304 -s 0 -d -1 -p AODV -e 48 -c 2 -a 0 -i 0 -k MAC
r -t 1.002774342 -s 2 -d -1 -p AODV -e 48 -c 2 -a 0 -i 0 -k MAC
r -t 1.002799304 -s 0 -d -1 -p AODV -e 48 -c 2 -a 0 -i 0 -k RTR
r -t 1.002799342 -s 2 -d -1 -p AODV -e 48 -c 2 -a 0 -i 0 -k RTR
+ -t 1.002799342 -s 2 -d 1 -p AODV -e 44 -c 2 -a 0 -i 0 -k RTR 
- -t 1.002799342 -s 2 -d 1 -p AODV -e 44 -c 2 -a 0 -i 0 -k RTR
h -t 1.002799342 -s 2 -d 1 -p AODV -e 44 -c 2 -a 0 -i 0 -k RTR
+ -t 1.002854342 -s 2 -d -1 -p ARP -e 86 -c 2 -a 0 -i 0 -k MAC 
- -t 1.002854342 -s 2 -d -1 -p ARP -e 86 -c 2 -a 0 -i 0 -k MAC
h -t 1.002854342 -s 2 -d -1 -p ARP -e 86 -c 2 -a 0 -i 0 -k MAC
r -t 1.003543009 -s 1 -d -1 -p ARP -e 28 -c 2 -a 0 -i 0 -k MAC
+ -t 1.003893009 -s 1 -d -1 -p RTS -e 44 -c 2 -a 0 -i 0 -k MAC 
- -t 1.003893009 -s 1 -d -1 -p RTS -e 44 -c 2 -a 0 -i 0 -k MAC
h -t 1.003893009 -s 1 -d -1 -p RTS -e 44 -c 2 -a 0 -i 0 -k MAC
r -t 1.004245675 -s 2 -d -1 -p RTS -e 44 -c 2 -a 0 -i 0 -k MAC
+ -t 1.004255675 -s 2 -d -1 -p CTS -e 38 -c 2 -a 0 -i 0 -k MAC 
- -t 1.004255675 -s 2 -d -1 -p CTS -e 38 -c 2 -a 0 -i 0 -k MAC
h -t 1.004255675 -s 2 -d -1 -p CTS -e 38 -c 2 -a 0 -i 0 -k MAC
r -t 1.004560342 -s 1 -d -1 -p CTS -e 38 -c 2 -a 0 -i 0 -k MAC
+ -t 1.004570342 -s 1 -d -1 -p ARP -e 86 -c 2 -a 0 -i 0 -k MAC 
- -t 1.004570342 -s 1 -d -1 -p ARP -e 86 -c 2 -a 0 -i 0 -k MAC
h -t 1.004570342 -s 1 -d -1 -p ARP -e 86 -c 2 -a 0 -i 0 -k MAC
r -t 1.005259009 -s 2 -d -1 -p ARP -e 28 -c 2 -a 0 -i 0 -k MAC
+ -t 1.005269009 -s 2 -d -1 -p ACK -e 38 -c 2 -a 0 -i 0 -k MAC 
- -t 1.005269009 -s 2 -d -1 -p ACK -e 38 -c 2 -a 0 -i 0 -k MAC
h -t 1.005269009 -s 2 -d -1 -p ACK -e 38 -c 2 -a 0 -i 0 -k MAC
r -t 1.005573675 -s 1 -d -1 -p ACK -e 38 -c 2 -a 0 -i 0 -k MAC
+ -t 1.005823009 -s 2 -d -1 -p RTS -e 44 -c 2 -a 0 -i 0 -k MAC 
- -t 1.005823009 -s 2 -d -1 -p RTS -e 44 -c 2 -a 0 -i 0 -k MAC
h -t 1.005823009 -s 2 -d -1 -p RTS -e 44 -c 2 -a 0 -i 0 -k MAC
r -t 1.006175675 -s 1 -d -1 -p RTS -e 44 -c 2 -a 0 -i 0 -k MAC
+ -t 1.006185675 -s 1 -d -1 -p CTS -e 38 -c 2 -a 0 -i 0 -k MAC 
- -t 1.006185675 -s 1 -d -1 -p CTS -e 38 -c 2 -a 0 -i 0 -k MAC
h -t 1.006185675 -s 1 -d -1 -p CTS -e 38 -c 2 -a 0 -i 0 -k MAC
r -t 1.006490342 -s 2 -d -1 -p CTS -e 38 -c 2 -a 0 -i 0 -k MAC
+ -t 1.006500342 -s 2 -d 1 -p AODV -e 102 -c 2 -a 0 -i 0 -k MAC 
- -t 1.006500342 -s 2 -d 1 -p AODV -e 102 -c 2 -a 0 -i 0 -k MAC
h -t 1.006500342 -s 2 -d 1 -p AODV -e 102 -c 2 -a 0 -i 0 -k MAC
r -t 1.007317009 -s 1 -d 1 -p AODV -e 44 -c 2 -a 0 -i 0 -k MAC
+ -t 1.007327009 -s 1 -d -1 -p ACK -e 38 -c 2 -a 0 -i 0 -k MAC 
- -t 1.007327009 -s 1 -d -1 -p ACK -e 38 -c 2 -a 0 -i 0 -k MAC
h -t 1.007327009 -s 1 -d -1 -p ACK -e 38 -c 2 -a 0 -i 0 -k MAC
+ -t 1.007342009 -s 1 -d 0 -p AODV -e 44 -c 2 -a 0 -i 0 -k RTR 
- -t 1.007342009 -s 1 -d 0 -p AODV -e 44 -c 2 -a 0 -i 0 -k RTR
h -t 1.007342009 -s 1 -d 0 -p AODV -e 44 -c 2 -a 0 -i 0 -k RTR
r -t 1.007631675 -s 2 -d -1 -p ACK -e 38 -c 2 -a 0 -i 0 -k MAC
+ -t 1.007741009 -s 1 -d -1 -p ARP -e 86 -c 2 -a 0 -i 0 -k MAC 
- -t 1.007741009 -s 1 -d -1 -p ARP -e 86 -c 2 -a 0 -i 0 -k MAC
h -t 1.007741009 -s 1 -d -1 -p ARP -e 86 -c 2 -a 0 -i 0 -k MAC
+ -t 1.008000000 -s 0 -d -1 -p cbr -e 1000 -c 2 -a 0 -i 1 -k AGT 
- -t 1.008000000 -s 0 -d -1 -p cbr -e 1000 -c 2 -a 0 -i 1 -k AGT
h -t 1.008000000 -s 0 -d -1 -p cbr -e 1000 -c 2 -a 0 -i 1 -k AGT
r -t 1.008429637 -s 0 -d -1 -p ARP -e 28 -c 2 -a 0 -i 0 -k MAC
r -t 1.008429675 -s 2 -d -1 -p ARP -e 28 -c 2 -a 0 -i 0 -k MAC
+ -t 1.008724637 -s 0 -d -1 -p RTS -e 44 -c 2 -a 0 -i 0 -k MAC 
- -t 1.008724637 -s 0 -d -1 -p RTS -e 44 -c 2 -a 0 -i 0 -k MAC
h -t 1.008724637 -s 0 -d -1 -p RTS -e 44 -c 2 -a 0 -i 0 -k MAC
r -t 1.009077264 -s 1 -d -1 -p RTS -e 44 -c 2 -a 0 -i 0 -k MAC
+ -t 1.009087264 -s 1 -d -1 -p CTS -e 38 -c 2 -a 0 -i 0 -k MAC 
- -t 1.009087264 -s 1 -d -1 -p CTS -e 38 -c 2 -a 0 -i 0 -k MAC
h -t 1.009087264 -s 1 -d -1 -p CTS -e 38 -c 2 -a 0 -i 0 -k MAC
r -t 1.009391892 -s 0 -d -1 -p CTS -e 38 -c 2 -a 0 -i 0 -k MAC
+ -t 1.009401892 -s 0 -d -1 -p ARP -e 86 -c 2 -a 0 -i 0 -k MAC 
- -t 1.009401892 -s 0 -d -1 -p ARP -e 86 -c 2 -a 0 -i 0 -k MAC
h -t 1.009401892 -s 0 -d -1 -p ARP -e 86 -c 2 -a 0 -i 0 -k MAC
r -t 1.010090520 -s 1 -d -1 -p ARP -e 28 -c 2 -a 0 -i 0 -k MAC
+ -t 1.010100520 -s 1 -d -1 -p ACK -e 38 -c 2 -a 0 -i 0 -k MAC 
- -t 1.010100520 -s 1 -d -1 -p ACK -e 38 -c 2 -a 0 -i 0 -k MAC
h -t 1.010100520 -s 1 -d -1 -p ACK -e 38 -c 2 -a 0 -i 0 -k MAC
r -t 1.010405147 -s 0 -d -1 -p ACK -e 38 -c 2 -a 0 -i 0 -k MAC
+ -t 1.010474520 -s 1 -d -1 -p RTS -e 44 -c 2 -a 0 -i 0 -k MAC 
- -t 1.010474520 -s 1 -d -1 -p RTS -e 44 -c 2 -a 0 -i 0 -k MAC
h -t 1.010474520 -s 1 -d -1 -p RTS -e 44 -c 2 -a 0 -i 0 -k MAC
r -t 1.010827147 -s 0 -d -1 -p RTS -e 44 -c 2 -a 0 -i 0 -k MAC
+ -t 1.010837147 -s 0 -d -1 -p CTS -e 38 -c 2 -a 0 -i 0 -k MAC 
- -t 1.010837147 -s 0 -d -1 -p CTS -e 38 -c 2 -a 0 -i 0 -k MAC
h -t 1.010837147 -s 0 -d -1 -p CTS -e 38 -c 2 -a 0 -i 0 -k MAC
r -t 1.011141774 -s 1 -d -1 -p CTS -e 38 -c 2 -a 0 -i 0 -k MAC
+ -t 1.011151774 -s 1 -d 0 -p AODV -e 102 -c 2 -a 0 -i 0 -k MAC 
- -t 1.011151774 -s 1 -d 0 -p AODV -e 102 -c 2 -a 0 -i 0 -k MAC
h -t 1.011151774 -s 1 -d 0 -p AODV -e 102 -c 2 -a 0 -i 0 -k MAC
r -t 1.011968402 -s 0 -d 0 -p AODV -e 44 -c 2 -a 0 -i 0 -k MAC
+ -t 1.011978402 -s 0 -d -1 -p ACK -e 38 -c 2 -a 0 -i 0 -k MAC 
- -t 1.011978402 -s 0 -d -1 -p ACK -e 38 -c 2 -a 0 -i 0 -k MAC
h -t 1.011978402 -s 0 -d -1 -p ACK -e 38 -c 2 -a 0 -i 0 -k MAC
+ -t 1.011993402 -s 0 -d 1 -p cbr -e 1020 -c 2 -a 0 -i 0 -k RTR 
- -t 1.011993402 -s 0 -d 1 -p cbr -e 1020 -c 2 -a 0 -i 0 -k RTR
h -t 1.011993402 -s 0 -d 1 -p cbr -e 1020 -c 2 -a 0 -i 0 -k RTR
r -t 1.012283029 -s 1 -d -1 -p ACK -e 38 -c 2 -a 0 -i 0 -k MAC
+ -t 1.012372402 -s 0 -d -1 -p RTS -e 44 -c 2 -a 0 -i 0 -k MAC 
- -t 1.012372402 -s 0 -d -1 -p RTS -e 44 -c 2 -a 0 -i 0 -k MAC
h -t 1.012372402 -s 0 -d -1 -p RTS -e 44 -c 2 -a 0 -i 0 -k MAC
r -t 1.012725029 -s 1 -d -1 -p RTS -e 44 -c 2 -a 0 -i 0 -k MAC
+ -t 1.012735029 -s 1 -d -1 -p CTS -e 38 -c 2 -a 0 -i 0 -k MAC 
- -t 1.012735029 -s 1 -d -1 -p CTS -e 38 -c 2 -a 0 -i 0 -k MAC
h -t 1.012735029 -s 1 -d -1 -p CTS -e 38 -c 2 -a 0 -i 0 -k MAC
r -t 1.013039656 -s 0 -d -1 -p CTS -e 38 -c 2 -a 0 -i 0 -k MAC
+ -t 1.013049656 -s 0 -d 1 -p cbr -e 1078 -c 2 -a 0 -i 0 -k MAC 
- -t 1.013049656 -s 0 -d 1 -p cbr -e 1078 -c 2 -a 0 -i 0 -k MAC
h -t 1.013049656 -s 0 -d 1 -p cbr -e 1078 -c 2 -a 0 -i 0 -k MAC
+ -t 1.016000000 -s 0 -d -1 -p cbr -e 1000 -c 2 -a 0 -i 2 -k AGT 
- -t 1.016000000 -s 0 -d -1 -p cbr -e 1000 -c 2 -a 0 -i 2 -k AGT
h -t 1.016000000 -s 0 -d -1 -p cbr -e 1000 -c 2 -a 0 -i 2 -k AGT
+ -t 1.016000000 -s 0 -d 1 -p cbr -e 1020 -c 2 -a 0 -i 2 -k RTR 
- -t 1.016000000 -s 0 -d 1 -p cbr -e 1020 -c 2 -a 0 -i 2 -k RTR
h -t 1.016000000 -s 0 -d 1 -p cbr -e 1020 -c 2 -a 0 -i 2 -k RTR
r -t 1.021674283 -s 1 -d 1 -p cbr -e 1020 -c 2 -a 0 -i 0 -k MAC
+ -t 1.021684283 -s 1 -d -1 -p ACK -e 38 -c 2 -a 0 -i 0 -k MAC 
- -t 1.021684283 -s 1 -d -1 -p ACK -e 38 -c 2 -a 0 -i 0 -k MAC
h -t 1.021684283 -s 1 -d -1 -p ACK -e 38 -c 2 -a 0 -i 0 -k MAC
+ -t 1.021699283 -s 1 -d 2 -p cbr -e 1020 -c 2 -a 0 -i 0 -k RTR 
- -t 1.021699283 -s 1 -d 2 -p cbr -e 1020 -c 2 -a 0 -i 0 -k RTR
h -t 1.021699283 -s 1 -d 2 -p cbr -e 1020 -c 2 -a 0 -i 0 -k RTR
r -t 1.021988909 -s 0 -d -1 -p ACK -e 38 -c 2 -a 0 -i 0 -k MAC
+ -t 1.021993402 -s 0 -d 1 -p cbr -e 1020 -c 2 -a 0 -i 1 -k RTR 
- -t 1.021993402 -s 0 -d 1 -p cbr -e 1020 -c 2 -a 0 -i 1 -k RTR
h -t 1.021993402 -s 0 -d 1 -p cbr -e 1020 -c 2 -a 0 -i 1 -k RTR
+ -t 1.022198909 -s 0 -d -1 -p RTS -e 44 -c 2 -a 0 -i 0 -k MAC 
- -t 1.022198909 -s 0 -d -1 -p RTS -e 44 -c 2 -a 0 -i 0 -k MAC
h -t 1.022198909 -s 0 -d -1 -p RTS -e 44 -c 2 -a 0 -i 0 -k MAC
r -t 1.022551535 -s 1 -d -1 -p RTS -e 44 -c 2 -a 0 -i 0 -k MAC
+ -t 1.022561535 -s 1 -d -1 -p CTS -e 38 -c 2 -a 0 -i 0 -k MAC 
- -t 1.022561535 -s 1 -d -1 -p CTS -e 38 -c 2 -a 0 -i 0 -k MAC
h -t 1.022561535 -s 1 -d -1 -p CTS -e 38 -c 2 -a 0 -i 0 -k MAC
r -t 1.022866161 -s 0 -d -1 -p CTS -e 38 -c 2 -a 0 -i 0 -k MAC
+ -t 1.022876161 -s 0 -d 1 -p cbr -e 1078 -c 2 -a 0 -i 2 -k MAC 
- -t 1.022876161 -s 0 -d 1 -p cbr -e 1078 -c 2 -a 0 -i 2 -k MAC
h -t 1.022876161 -s 0 -d 1 -p cbr -e 1078 -c 2 -a 0 -i 2 -k MAC
+ -t 1.024000000 -s 0 -d -1 -p cbr -e 1000 -c 2 -a 0 -i 3 -k AGT 
- -t 1.024000000 -s 0 -d -1 -p cbr -e 1000 -c 2 -a 0 -i 3 -k AGT
h -t 1.024000000 -s 0 -d -1 -p cbr -e 1000 -c 2 -a 0 -i 3 -k AGT
+ -t 1.024000000 -s 0 -d 1 -p cbr -e 1020 -c 2 -a 0 -i 3 -k RTR 
- -t 1.024000000 -s 0 -d 1 -p cbr -e 1020 -c 2 -a 0 -i 3 -k RTR
h -t 1.024000000 -s 0 -d 1 -p cbr -e 1020 -c 2 -a 0 -i 3 -k RTR
r -t 1.031500786 -s 1 -d 1 -p cbr -e 1020 -c 2 -a 0 -i 2 -k MAC
+ -t 1.031510786 -s 1 -d -1 -p ACK -e 38 -c 2 -a 0 -i 0 -k MAC 
- -t 1.031510786 -s 1 -d -1 -p ACK -e 38 -c 2 -a 0 -i 0 -k MAC
h -t 1.031510786 -s 1 -d -1 -p ACK -e 38 -c 2 -a 0 -i 0 -k MAC
+ -t 1.031525786 -s 1 -d 2 -p cbr -e 1020 -c 2 -a 0 -i 2 -k RTR 
- -t 1.031525786 -s 1 -d 2 -p cbr -e 1020 -c 2 -a 0 -i 2 -k RTR
h -t 1.031525786 -s 1 -d 2 -p cbr -e 1020 -c 2 -a 0 -i 2 -k RTR
r -t 1.031815411 -s 0 -d -1 -p ACK -e 38 -c 2 -a 0 -i 0 -k MAC
+ -t 1.032000000 -s 0 -d -1 -p cbr -e 1000 -c 2 -a 0 -i 4 -k AGT 
- -t 1.032000000 -s 0 -d -1 -p cbr -e 1000 -c 2 -a 0 -i 4 -k AGT
h -t 1.032000000 -s 0 -d -1 -p cbr -e 1000 -c 2 -a 0 -i 4 -k AGT
+ -t 1.032000000 -s 0 -d 1 -p cbr -e 1020 -c 2 -a 0 -i 4 -k RTR 
- -t 1.032000000 -s 0 -d 1 -p cbr -e 1020 -c 2 -a 0 -i 4 -k RTR
h -t 1.032000000 -s 0 -d 1 -p cbr -e 1020 -c 2 -a 0 -i 4 -k RTR
+ -t 1.032224786 -s 1 -d -1 -p RTS -e 44 -c 2 -a 0 -i 0 -k MAC 
- -t 1.032224786 -s 1 -d -1 -p RTS -e 44 -c 2 -a 0 -i 0 -k MAC
h -t 1.032224786 -s 1 -d -1 -p RTS -e 44 -c 2 -a 0 -i 0 -k MAC
r -t 1.032577453 -s 2 -d -1 -p RTS -e 44 -c 2 -a 0 -i 0 -k MAC
+ -t 1.032587453 -s 2 -d -1 -p CTS -e 38 -c 2 -a 0 -i 0 -k MAC 
- -t 1.032587453 -s 2 -d -1 -p CTS -e 38 -c 2 -a 0 -i 0 -k MAC
h -t 1.032587453 -s 2 -d -1 -p CTS -e 38 -c 2 -a 0 -i 0 -k MAC
r -t 1.032892120 -s 1 -d -1 -p CTS -e 38 -c 2 -a 0 -i 0 -k MAC
+ -t 1.032902120 -s 1 -d 2 -p cbr -e 1078 -c 2 -a 0 -i 0 -k MAC 
- -t 1.032902120 -s 1 -d 2 -p cbr -e 1078 -c 2 -a 0 -i 0 -k MAC
h -t 1.032902120 -s 1 -d 2 -p cbr -e 1078 -c 2 -a 0 -i 0 -k MAC
+ -t 1.040000000 -s 0 -d -1 -p cbr -e 1000 -c 2 -a 0 -i 5 -k AGT 
- -t 1.040000000 -s 0 -d -1 -p cbr -e 1000 -c 2 -a 0 -i 5 -k AGT
h -t 1.040000000 -s 0 -d -1 -p cbr -e 1000 -c 2 -a 0 -i 5 -k AGT
+ -t 1.040000000 -s 0 -d 1 -p cbr -e 1020 -c 2 -a 0 -i 5 -k RTR 
- -t 1.040000000 -s 0 -d 1 -p cbr -e 1020 -c 2 -a 0 -i 5 -k RTR
h -t 1.040000000 -s 0 -d 1 -p cbr -e 1020 -c 2 -a 0 -i 5 -k RTR
r -t 1.041526786 -s 2 -d 2 -p cbr -e 1020 -c 2 -a 0 -i 0 -k MAC
+ -t 1.041536786 -s 2 -d -1 -p ACK -e 38 -c 2 -a 0 -i 0 -k MAC 
- -t 1.041536786 -s 2 -d -1 -p ACK -e 38 -c 2 -a 0 -i 0 -k MAC
h -t 1.041536786 -s 2 -d -1 -p ACK -e 38 -c 2 -a 0 -i 0 -k MAC
r -t 1.041551786 -s 2 -d 2 -p cbr -e 1020 -c 2 -a 0 -i 0 -k AGT
r -t 1.041841453 -s 1 -d -1 -p ACK -e 38 -c 2 -a 0 -i 0 -k MAC
+ -t 1.042131453 -s 1 -d -1 -p RTS -e 44 -c 2 -a 0 -i 0 -k MAC 
- -t 1.042131453 -s 1 -d -1 -p RTS -e 44 -c 2 -a 0 -i 0 -k MAC
h -t 1.042131453 -s 1 -d -1 -p RTS -e 44 -c 2 -a 0 -i 0 -k MAC
r -t 1.042484120 -s 2 -d -1 -p RTS -e 44 -c 2 -a 0 -i 0 -k MAC
+ -t 1.042494120 -s 2 -d -1 -p CTS -e 38 -c 2 -a 0 -i 0 -k MAC 
- -t 1.042494120 -s 2 -d -1 -p CTS -e 38 -c 2 -a 0 -i 0 -k MAC
h -t 1.042494120 -s 2 -d -1 -p CTS -e 38 -c 2 -a 0 -i 0 -k MAC
r -t 1.042798786 -s 1 -d -1 -p CTS -e 38 -c 2 -a 0 -i 0 -k MAC
+ -t 1.042808786 -s 1 -d 2 -p cbr -e 1078 -c 2 -a 0 -i 2 -k MAC 
- -t 1.042808786 -s 1 -d 2 -p cbr -e 1078 -c 2 -a 0 -i 2 -k MAC
h -t 1.042808786 -s 1 -d 2 -p cbr -e 1078 -c 2 -a 0 -i 2 -k MAC
+ -t 1.048000000 -s 0 -d -1 -p cbr -e 1000 -c 2 -a 0 -i 6 -k AGT 
- -t 1.048000000 -s 0 -d -1 -p cbr -e 1000 -c 2 -a 0 -i 6 -k AGT
h -t 1.048000000 -s 0 -d -1 -p cbr -e 1000 -c 2 -a 0 -i 6 -k AGT
+ -t 1.048000000 -s 0 -d 1 -p cbr -e 1020 -c 2 -a 0 -i 6 -k RTR 
- -t 1.048000000 -s 0 -d 1 -p cbr -e 1020 -c 2 -a 0 -i 6 -k RTR
h -t 1.048000000 -s 0 -d 1 -p cbr -e 1020 -c 2 -a 0 -i 6 -k RTR
r -t 1.051433453 -s 2 -d 2 -p cbr -e 1020 -c 2 -a 0 -i 2 -k MAC
+ -t 1.051443453 -s 2 -d -1 -p ACK -e 38 -c 2 -a 0 -i 0 -k MAC 
- -t 1.051443453 -s 2 -d -1 -p ACK -e 38 -c 2 -a 0 -i 0 -k MAC
h -t 1.051443453 -s 2 -d -1 -p ACK -e 38 -c 2 -a 0 -i 0 -k MAC
r -t 1.051458453 -s 2 -d 2 -p cbr -e 1020 -c 2 -a 0 -i 2 -k AGT
r -t 1.051748120 -s 1 -d -1 -p ACK -e 38 -c 2 -a 0 -i 0 -k MAC
+ -t 1.052182690 -s 0 -d -1 -p RTS -e 44 -c 2 -a 0 -i 0 -k MAC 
- -t 1.052182690 -s 0 -d -1 -p RTS -e 44 -c 2 -a 0 -i 0 -k MAC
h -t 1.052182690 -s 0 -d -1 -p RTS -e 44 -c 2 -a 0 -i 0 -k MAC
r -t 1.052535312 -s 1 -d -1 -p RTS -e 44 -c 2 -a 0 -i 0 -k MAC
+ -t 1.052545312 -s 1 -d -1 -p CTS -e 38 -c 2 -a 0 -i 0 -k MAC 
- -t 1.052545312 -s 1 -d -1 -p CTS -e 38 -c 2 -a 0 -i 0 -k MAC
h -t 1.052545312 -s 1 -d -1 -p CTS -e 38 -c 2 -a 0 -i 0 -k MAC
r -t 1.052849933 -s 0 -d -1 -p CTS -e 38 -c 2 -a 0 -i 0 -k MAC
+ -t 1.052859933 -s 0 -d 1 -p cbr -e 1078 -c 2 -a 0 -i 1 -k MAC 
- -t 1.052859933 -s 0 -d 1 -p cbr -e 1078 -c 2 -a 0 -i 1 -k MAC
h -t 1.052859933 -s 0 -d 1 -p cbr -e 1078 -c 2 -a 0 -i 1 -k MAC
+ -t 1.056000000 -s 0 -d -1 -p cbr -e 1000 -c 2 -a 0 -i 7 -k AGT 
- -t 1.056000000 -s 0 -d -1 -p cbr -e 1000 -c 2 -a 0 -i 7 -k AGT
h -t 1.056000000 -s 0 -d -1 -p cbr -e 1000 -c 2 -a 0 -i 7 -k AGT
+ -t 1.056000000 -s 0 -d 1 -p cbr -e 1020 -c 2 -a 0 -i 7 -k RTR 
- -t 1.056000000 -s 0 -d 1 -p cbr -e 1020 -c 2 -a 0 -i 7 -k RTR
h -t 1.056000000 -s 0 -d 1 -p cbr -e 1020 -c 2 -a 0 -i 7 -k RTR
r -t 1.061484555 -s 1 -d 1 -p cbr -e 1020 -c 2 -a 0 -i 1 -k MAC
+ -t 1.061494555 -s 1 -d -1 -p ACK -e 38 -c 2 -a 0 -i 0 -k MAC 
- -t 1.061494555 -s 1 -d -1 -p ACK -e 38 -c 2 -a 0 -i 0 -k MAC
h -t 1.061494555 -s 1 -d -1 -p ACK -e 38 -c 2 -a 0 -i 0 -k MAC
+ -t 1.061509555 -s 1 -d 2 -p cbr -e 1020 -c 2 -a 0 -i 1 -k RTR 
- -t 1.061509555 -s 1 -d 2 -p cbr -e 1020 -c 2 -a 0 -i 1 -k RTR
h -t 1.061509555 -s 1 -d 2 -p cbr -e 1020 -c 2 -a 0 -i 1 -k RTR
r -t 1.061799175 -s 0 -d -1 -p ACK -e 38 -c 2 -a 0 -i 0 -k MAC
+ -t 1.062189175 -s 0 -d -1 -p RTS -e 44 -c 2 -a 0 -i 0 -k MAC 
- -t 1.062189175 -s 0 -d -1 -p RTS -e 44 -c 2 -a 0 -i 0 -k MAC
h -t 1.062189175 -s 0 -d -1 -p RTS -e 44 -c 2 -a 0 -i 0 -k MAC
r -t 1.062541795 -s 1 -d -1 -p RTS -e 44 -c 2 -a 0 -i 0 -k MAC
+ -t 1.062551795 -s 1 -d -1 -p CTS -e 38 -c 2 -a 0 -i 0 -k MAC 
- -t 1.062551795 -s 1 -d -1 -p CTS -e 38 -c 2 -a 0 -i 0 -k MAC
h -t 1.062551795 -s 1 -d -1 -p CTS -e 38 -c 2 -a 0 -i 0 -k MAC
r -t 1.062856415 -s 0 -d -1 -p CTS -e 38 -c 2 -a 0 -i 0 -k MAC
+ -t 1.062866415 -s 0 -d 1 -p cbr -e 1078 -c 2 -a 0 -i 3 -k MAC 
- -t 1.062866415 -s 0 -d 1 -p cbr -e 1078 -c 2 -a 0 -i 3 -k MAC
h -t 1.062866415 -s 0 -d 1 -p cbr -e 1078 -c 2 -a 0 -i 3 -k MAC
+ -t 1.064000000 -s 0 -d -1 -p cbr -e 1000 -c 2 -a 0 -i 8 -k AGT 
- -t 1.064000000 -s 0 -d -1 -p cbr -e 1000 -c 2 -a 0 -i 8 -k AGT
h -t 1.064000000 -s 0 -d -1 -p cbr -e 1000 -c 2 -a 0 -i 8 -k AGT
+ -t 1.064000000 -s 0 -d 1 -p cbr -e 1020 -c 2 -a 0 -i 8 -k RTR 
- -t 1.064000000 -s 0 -d 1 -p cbr -e 1020 -c 2 -a 0 -i 8 -k RTR
h -t 1.064000000 -s 0 -d 1 -p cbr -e 1020 -c 2 -a 0 -i 8 -k RTR
r -t 1.071491035 -s 1 -d 1 -p cbr -e 1020 -c 2 -a 0 -i 3 -k MAC
+ -t 1.071501035 -s 1 -d -1 -p ACK -e 38 -c 2 -a 0 -i 0 -k MAC 
- -t 1.071501035 -s 1 -d -1 -p ACK -e 38 -c 2 -a 0 -i 0 -k MAC
h -t 1.071501035 -s 1 -d -1 -p ACK -e 38 -c 2 -a 0 -i 0 -k MAC
+ -t 1.071516035 -s 1 -d 2 -p cbr -e 1020 -c 2 -a 0 -i 3 -k RTR 
- -t 1.071516035 -s 1 -d 2 -p cbr -e 1020 -c 2 -a 0 -i 3 -k RTR
h -t 1.071516035 -s 1 -d 2 -p cbr -e 1020 -c 2 -a 0 -i 3 -k RTR
r -t 1.071805654 -s 0 -d -1 -p ACK -e 38 -c 2 -a 0 -i 0 -k MAC
+ -t 1.071995035 -s 1 -d -1 -p RTS -e 44 -c 2 -a 0 -i 0 -k MAC 
- -t 1.071995035 -s 1 -d -1 -p RTS -e 44 -c 2 -a 0 -i 0 -k MAC
h -t 1.071995035 -s 1 -d -1 -p RTS -e 44 -c 2 -a 0 -i 0 -k MAC
+ -t 1.072000000 -s 0 -d -1 -p cbr -e 1000 -c 2 -a 0 -i 9 -k AGT 
- -t 1.072000000 -s 0 -d -1 -p cbr -e 1000 -c 2 -a 0 -i 9 -k AGT
h -t 1.072000000 -s 0 -d -1 -p cbr -e 1000 -c 2 -a 0 -i 9 -k AGT
+ -t 1.072000000 -s 0 -d 1 -p cbr -e 1020 -c 2 -a 0 -i 9 -k RTR 
- -t 1.072000000 -s 0 -d 1 -p cbr -e 1020 -c 2 -a 0 -i 9 -k RTR
h -t 1.072000000 -s 0 -d 1 -p cbr -e 1020 -c 2 -a 0 -i 9 -k RTR
r -t 1.072347702 -s 2 -d -1 -p RTS -e 44 -c 2 -a 0 -i 0 -k MAC
+ -t 1.072357702 -s 2 -d -1 -p CTS -e 38 -c 2 -a 0 -i 0 -k MAC 
- -t 1.072357702 -s 2 -d -1 -p CTS -e 38 -c 2 -a 0 -i 0 -k MAC
h -t 1.072357702 -s 2 -d -1 -p CTS -e 38 -c 2 -a 0 -i 0 -k MAC
r -t 1.072662369 -s 1 -d -1 -p CTS -e 38 -c 2 -a 0 -i 0 -k MAC
+ -t 1.072672369 -s 1 -d 2 -p cbr -e 1078 -c 2 -a 0 -i 1 -k MAC 
- -t 1.072672369 -s 1 -d 2 -p cbr -e 1078 -c 2 -a 0 -i 1 -k MAC
h -t 1.072672369 -s 1 -d 2 -p cbr -e 1078 -c 2 -a 0 -i 1 -k MAC
+ -t 1.080000000 -s 0 -d -1 -p cbr -e 1000 -c 2 -a 0 -i 10 -k AGT 
- -t 1.080000000 -s 0 -d -1 -p cbr -e 1000 -c 2 -a 0 -i 10 -k AGT
h -t 1.080000000 -s 0 -d -1 -p cbr -e 1000 -c 2 -a 0 -i 10 -k AGT
+ -t 1.080000000 -s 0 -d 1 -p cbr -e 1020 -c 2 -a 0 -i 10 -k RTR 
- -t 1.080000000 -s 0 -d 1 -p cbr -e 1020 -c 2 -a 0 -i 10 -k RTR
h -t 1.080000000 -s 0 -d 1 -p cbr -e 1020 -c 2 -a 0 -i 10 -k RTR
r -t 1.081297035 -s 2 -d 2 -p cbr -e 1020 -c 2 -a 0 -i 1 -k MAC
+ -t 1.081307035 -s 2 -d -1 -p ACK -e 38 -c 2 -a 0 -i 0 -k MAC 
- -t 1.081307035 -s 2 -d -1 -p ACK -e 38 -c 2 -a 0 -i 0 -k MAC
h -t 1.081307035 -s 2 -d -1 -p ACK -e 38 -c 2 -a 0 -i 0 -k MAC
r -t 1.081322035 -s 2 -d 2 -p cbr -e 1020 -c 2 -a 0 -i 1 -k AGT
r -t 1.081611702 -s 1 -d -1 -p ACK -e 38 -c 2 -a 0 -i 0 -k MAC
+ -t 1.081861702 -s 1 -d -1 -p RTS -e 44 -c 2 -a 0 -i 0 -k MAC 
- -t 1.081861702 -s 1 -d -1 -p RTS -e 44 -c 2 -a 0 -i 0 -k MAC
h -t 1.081861702 -s 1 -d -1 -p RTS -e 44 -c 2 -a 0 -i 0 -k MAC
r -t 1.082214369 -s 2 -d -1 -p RTS -e 44 -c 2 -a 0 -i 0 -k MAC
+ -t 1.082224369 -s 2 -d -1 -p CTS -e 38 -c 2 -a 0 -i 0 -k MAC 
- -t 1.082224369 -s 2 -d -1 -p CTS -e 38 -c 2 -a 0 -i 0 -k MAC
h -t 1.082224369 -s 2 -d -1 -p CTS -e 38 -c 2 -a 0 -i 0 -k MAC
r -t 1.082529035 -s 1 -d -1 -p CTS -e 38 -c 2 -a 0 -i 0 -k MAC
+ -t 1.082539035 -s 1 -d 2 -p cbr -e 1078 -c 2 -a 0 -i 3 -k MAC 
- -t 1.082539035 -s 1 -d 2 -p cbr -e 1078 -c 2 -a 0 -i 3 -k MAC
h -t 1.082539035 -s 1 -d 2 -p cbr -e 1078 -c 2 -a 0 -i 3 -k MAC
+ -t 1.088000000 -s 0 -d -1 -p cbr -e 1000 -c 2 -a 0 -i 11 -k AGT 
- -t 1.088000000 -s 0 -d -1 -p cbr -e 1000 -c 2 -a 0 -i 11 -k AGT
h -t 1.088000000 -s 0 -d -1 -p cbr -e 1000 -c 2 -a 0 -i 11 -k AGT
+ -t 1.088000000 -s 0 -d 1 -p cbr -e 1020 -c 2 -a 0 -i 11 -k RTR 
- -t 1.088000000 -s 0 -d 1 -p cbr -e 1020 -c 2 -a 0 -i 11 -k RTR
h -t 1.088000000 -s 0 -d 1 -p cbr -e 1020 -c 2 -a 0 -i 11 -k RTR
r -t 1.091163702 -s 2 -d 2 -p cbr -e 1020 -c 2 -a 0 -i 3 -k MAC
+ -t 1.091173702 -s 2 -d -1 -p ACK -e 38 -c 2 -a 0 -i 0 -k MAC 
- -t 1.091173702 -s 2 -d -1 -p ACK -e 38 -c 2 -a 0 -i 0 -k MAC
h -t 1.091173702 -s 2 -d -1 -p ACK -e 38 -c 2 -a 0 -i 0 -k MAC
r -t 1.091188702 -s 2 -d 2 -p cbr -e 1020 -c 2 -a 0 -i 3 -k AGT
r -t 1.091478369 -s 1 -d -1 -p ACK -e 38 -c 2 -a 0 -i 0 -k MAC
+ -t 1.092092933 -s 0 -d -1 -p RTS -e 44 -c 2 -a 0 -i 0 -k MAC 
- -t 1.092092933 -s 0 -d -1 -p RTS -e 44 -c 2 -a 0 -i 0 -k MAC
h -t 1.092092933 -s 0 -d -1 -p RTS -e 44 -c 2 -a 0 -i 0 -k MAC
r -t 1.092445549 -s 1 -d -1 -p RTS -e 44 -c 2 -a 0 -i 0 -k MAC
+ -t 1.092455549 -s 1 -d -1 -p CTS -e 38 -c 2 -a 0 -i 0 -k MAC 
- -t 1.092455549 -s 1 -d -1 -p CTS -e 38 -c 2 -a 0 -i 0 -k MAC
h -t 1.092455549 -s 1 -d -1 -p CTS -e 38 -c 2 -a 0 -i 0 -k MAC
r -t 1.092760165 -s 0 -d -1 -p CTS -e 38 -c 2 -a 0 -i 0 -k MAC
+ -t 1.092770165 -s 0 -d 1 -p cbr -e 1078 -c 2 -a 0 -i 4 -k MAC 
- -t 1.092770165 -s 0 -d 1 -p cbr -e 1078 -c 2 -a 0 -i 4 -k MAC
h -t 1.092770165 -s 0 -d 1 -p cbr -e 1078 -c 2 -a 0 -i 4 -k MAC
+ -t 1.096000000 -s 0 -d -1 -p cbr -e 1000 -c 2 -a 0 -i 12 -k AGT 
- -t 1.096000000 -s 0 -d -1 -p cbr -e 1000 -c 2 -a 0 -i 12 -k AGT
h -t 1.096000000 -s 0 -d -1 -p cbr -e 1000 -c 2 -a 0 -i 12 -k AGT
+ -t 1.096000000 -s 0 -d 1 -p cbr -e 1020 -c 2 -a 0 -i 12 -k RTR 
- -t 1.096000000 -s 0 -d 1 -p cbr -e 1020 -c 2 -a 0 -i 12 -k RTR
h -t 1.096000000 -s 0 -d 1 -p cbr -e 1020 -c 2 -a 0 -i 12 -k RTR
r -t 1.101394781 -s 1 -d 1 -p cbr -e 1020 -c 2 -a 0 -i 4 -k MAC
+ -t 1.101404781 -s 1 -d -1 -p ACK -e 38 -c 2 -a 0 -i 0 -k MAC 
- -t 1.101404781 -s 1 -d -1 -p ACK -e 38 -c 2 -a 0 -i 0 -k MAC
h -t 1.101404781 -s 1 -d -1 -p ACK -e 38 -c 2 -a 0 -i 0 -k MAC
+ -t 1.101419781 -s 1 -d 2 -p cbr -e 1020 -c 2 -a 0 -i 4 -k RTR 
- -t 1.101419781 -s 1 -d 2 -p cbr -e 1020 -c 2 -a 0 -i 4 -k RTR
h -t 1.101419781 -s 1 -d 2 -p cbr -e 1020 -c 2 -a 0 -i 4 -k RTR
r -t 1.101709395 -s 0 -d -1 -p ACK -e 38 -c 2 -a 0 -i 0 -k MAC
+ -t 1.101778781 -s 1 -d -1 -p RTS -e 44 -c 2 -a 0 -i 0 -k MAC 
- -t 1.101778781 -s 1 -d -1 -p RTS -e 44 -c 2 -a 0 -i 0 -k MAC
h -t 1.101778781 -s 1 -d -1 -p RTS -e 44 -c 2 -a 0 -i 0 -k MAC
r -t 1.102131447 -s 2 -d -1 -p RTS -e 44 -c 2 -a 0 -i 0 -k MAC
+ -t 1.102141447 -s 2 -d -1 -p CTS -e 38 -c 2 -a 0 -i 0 -k MAC 
- -t 1.102141447 -s 2 -d -1 -p CTS -e 38 -c 2 -a 0 -i 0 -k MAC
h -t 1.102141447 -s 2 -d -1 -p CTS -e 38 -c 2 -a 0 -i 0 -k MAC
r -t 1.102446114 -s 1 -d -1 -p CTS -e 38 -c 2 -a 0 -i 0 -k MAC
+ -t 1.102456114 -s 1 -d 2 -p cbr -e 1078 -c 2 -a 0 -i 4 -k MAC 
- -t 1.102456114 -s 1 -d 2 -p cbr -e 1078 -c 2 -a 0 -i 4 -k MAC
h -t 1.102456114 -s 1 -d 2 -p cbr -e 1078 -c 2 -a 0 -i 4 -k MAC
+ -t 1.104000000 -s 0 -d -1 -p cbr -e 1000 -c 2 -a 0 -i 13 -k AGT 
- -t 1.104000000 -s 0 -d -1 -p cbr -e 1000 -c 2 -a 0 -i 13 -k AGT
h -t 1.104000000 -s 0 -d -1 -p cbr -e 1000 -c 2 -a 0 -i 13 -k AGT
+ -t 1.104000000 -s 0 -d 1 -p cbr -e 1020 -c 2 -a 0 -i 13 -k RTR 
- -t 1.104000000 -s 0 -d 1 -p cbr -e 1020 -c 2 -a 0 -i 13 -k RTR
h -t 1.104000000 -s 0 -d 1 -p cbr -e 1020 -c 2 -a 0 -i 13 -k RTR
r -t 1.111080781 -s 2 -d 2 -p cbr -e 1020 -c 2 -a 0 -i 4 -k MAC
+ -t 1.111090781 -s 2 -d -1 -p ACK -e 38 -c 2 -a 0 -i 0 -k MAC 
- -t 1.111090781 -s 2 -d -1 -p ACK -e 38 -c 2 -a 0 -i 0 -k MAC
h -t 1.111090781 -s 2 -d -1 -p ACK -e 38 -c 2 -a 0 -i 0 -k MAC
r -t 1.111105781 -s 2 -d 2 -p cbr -e 1020 -c 2 -a 0 -i 4 -k AGT
r -t 1.111395447 -s 1 -d -1 -p ACK -e 38 -c 2 -a 0 -i 0 -k MAC
+ -t 1.112000000 -s 0 -d -1 -p cbr -e 1000 -c 2 -a 0 -i 14 -k AGT 
- -t 1.112000000 -s 0 -d -1 -p cbr -e 1000 -c 2 -a 0 -i 14 -k AGT
h -t 1.112000000 -s 0 -d -1 -p cbr -e 1000 -c 2 -a 0 -i 14 -k AGT
+ -t 1.112000000 -s 0 -d 1 -p cbr -e 1020 -c 2 -a 0 -i 14 -k RTR 
- -t 1.112000000 -s 0 -d 1 -p cbr -e 1020 -c 2 -a 0 -i 14 -k RTR
h -t 1.112000000 -s 0 -d 1 -p cbr -e 1020 -c 2 -a 0 -i 14 -k RTR
+ -t 1.112050008 -s 0 -d -1 -p RTS -e 44 -c 2 -a 0 -i 0 -k MAC 
- -t 1.112050008 -s 0 -d -1 -p RTS -e 44 -c 2 -a 0 -i 0 -k MAC
h -t 1.112050008 -s 0 -d -1 -p RTS -e 44 -c 2 -a 0 -i 0 -k MAC
r -t 1.112402621 -s 1 -d -1 -p RTS -e 44 -c 2 -a 0 -i 0 -k MAC
+ -t 1.112412621 -s 1 -d -1 -p CTS -e 38 -c 2 -a 0 -i 0 -k MAC 
- -t 1.112412621 -s 1 -d -1 -p CTS -e 38 -c 2 -a 0 -i 0 -k MAC
h -t 1.112412621 -s 1 -d -1 -p CTS -e 38 -c 2 -a 0 -i 0 -k MAC
r -t 1.112717234 -s 0 -d -1 -p CTS -e 38 -c 2 -a 0 -i 0 -k MAC
+ -t 1.112727234 -s 0 -d 1 -p cbr -e 1078 -c 2 -a 0 -i 5 -k MAC 
- -t 1.112727234 -s 0 -d 1 -p cbr -e 1078 -c 2 -a 0 -i 5 -k MAC
h -t 1.112727234 -s 0 -d 1 -p cbr -e 1078 -c 2 -a 0 -i 5 -k MAC
+ -t 1.120000000 -s 0 -d -1 -p cbr -e 1000 -c 2 -a 0 -i 15 -k AGT 
- -t 1.120000000 -s 0 -d -1 -p cbr -e 1000 -c 2 -a 0 -i 15 -k AGT
h -t 1.120000000 -s 0 -d -1 -p cbr -e 1000 -c 2 -a 0 -i 15 -k AGT
+ -t 1.120000000 -s 0 -d 1 -p cbr -e 1020 -c 2 -a 0 -i 15 -k RTR 
- -t 1.120000000 -s 0 -d 1 -p cbr -e 1020 -c 2 -a 0 -i 15 -k RTR
h -t 1.120000000 -s 0 -d 1 -p cbr -e 1020 -c 2 -a 0 -i 15 -k RTR
r -t 1.121351848 -s 1 -d 1 -p cbr -e 1020 -c 2 -a 0 -i 5 -k MAC
+ -t 1.121361848 -s 1 -d -1 -p ACK -e 38 -c 2 -a 0 -i 0 -k MAC 
- -t 1.121361848 -s 1 -d -1 -p ACK -e 38 -c 2 -a 0 -i 0 -k MAC
h -t 1.121361848 -s 1 -d -1 -p ACK -e 38 -c 2 -a 0 -i 0 -k MAC
+ -t 1.121376848 -s 1 -d 2 -p cbr -e 1020 -c 2 -a 0 -i 5 -k RTR 
- -t 1.121376848 -s 1 -d 2 -p cbr -e 1020 -c 2 -a 0 -i 5 -k RTR
h -t 1.121376848 -s 1 -d 2 -p cbr -e 1020 -c 2 -a 0 -i 5 -k RTR
r -t 1.121666459 -s 0 -d -1 -p ACK -e 38 -c 2 -a 0 -i 0 -k MAC
+ -t 1.121895848 -s 1 -d -1 -p RTS -e 44 -c 2 -a 0 -i 0 -k MAC 
- -t 1.121895848 -s 1 -d -1 -p RTS -e 44 -c 2 -a 0 -i 0 -k MAC
h -t 1.121895848 -s 1 -d -1 -p RTS -e 44 -c 2 -a 0 -i 0 -k MAC
r -t 1.122248514 -s 2 -d -1 -p RTS -e 44 -c 2 -a 0 -i 0 -k MAC
+ -t 1.122258514 -s 2 -d -1 -p CTS -e 38 -c 2 -a 0 -i 0 -k MAC 
- -t 1.122258514 -s 2 -d -1 -p CTS -e 38 -c 2 -a 0 -i 0 -k MAC
h -t 1.122258514 -s 2 -d -1 -p CTS -e 38 -c 2 -a 0 -i 0 -k MAC
r -t 1.122563181 -s 1 -d -1 -p CTS -e 38 -c 2 -a 0 -i 0 -k MAC
+ -t 1.122573181 -s 1 -d 2 -p cbr -e 1078 -c 2 -a 0 -i 5 -k MAC 
- -t 1.122573181 -s 1 -d 2 -p cbr -e 1078 -c 2 -a 0 -i 5 -k MAC
h -t 1.122573181 -s 1 -d 2 -p cbr -e 1078 -c 2 -a 0 -i 5 -k MAC
+ -t 1.128000000 -s 0 -d -1 -p cbr -e 1000 -c 2 -a 0 -i 16 -k AGT 
- -t 1.128000000 -s 0 -d -1 -p cbr -e 1000 -c 2 -a 0 -i 16 -k AGT
h -t 1.128000000 -s 0 -d -1 -p cbr -e 1000 -c 2 -a 0 -i 16 -k AGT
+ -t 1.128000000 -s 0 -d 1 -p cbr -e 1020 -c 2 -a 0 -i 16 -k RTR 
- -t 1.128000000 -s 0 -d 1 -p cbr -e 1020 -c 2 -a 0 -i 16 -k RTR
h -t 1.128000000 -s 0 -d 1 -p cbr -e 1020 -c 2 -a 0 -i 16 -k RTR
r -t 1.131197848 -s 2 -d 2 -p cbr -e 1020 -c 2 -a 0 -i 5 -k MAC
+ -t 1.131207848 -s 2 -d -1 -p ACK -e 38 -c 2 -a 0 -i 0 -k MAC 
- -t 1.131207848 -s 2 -d -1 -p ACK -e 38 -c 2 -a 0 -i 0 -k MAC
h -t 1.131207848 -s 2 -d -1 -p ACK -e 38 -c 2 -a 0 -i 0 -k MAC
r -t 1.131222848 -s 2 -d 2 -p cbr -e 1020 -c 2 -a 0 -i 5 -k AGT
r -t 1.131512514 -s 1 -d -1 -p ACK -e 38 -c 2 -a 0 -i 0 -k MAC
+ -t 1.132347072 -s 0 -d -1 -p RTS -e 44 -c 2 -a 0 -i 0 -k MAC 
- -t 1.132347072 -s 0 -d -1 -p RTS -e 44 -c 2 -a 0 -i 0 -k MAC
h -t 1.132347072 -s 0 -d -1 -p RTS -e 44 -c 2 -a 0 -i 0 -k MAC
r -t 1.132699682 -s 1 -d -1 -p RTS -e 44 -c 2 -a 0 -i 0 -k MAC
+ -t 1.132709682 -s 1 -d -1 -p CTS -e 38 -c 2 -a 0 -i 0 -k MAC 
- -t 1.132709682 -s 1 -d -1 -p CTS -e 38 -c 2 -a 0 -i 0 -k MAC
h -t 1.132709682 -s 1 -d -1 -p CTS -e 38 -c 2 -a 0 -i 0 -k MAC
r -t 1.133014293 -s 0 -d -1 -p CTS -e 38 -c 2 -a 0 -i 0 -k MAC
+ -t 1.133024293 -s 0 -d 1 -p cbr -e 1078 -c 2 -a 0 -i 6 -k MAC 
- -t 1.133024293 -s 0 -d 1 -p cbr -e 1078 -c 2 -a 0 -i 6 -k MAC
h -t 1.133024293 -s 0 -d 1 -p cbr -e 1078 -c 2 -a 0 -i 6 -k MAC
+ -t 1.136000000 -s 0 -d -1 -p cbr -e 1000 -c 2 -a 0 -i 17 -k AGT 
- -t 1.136000000 -s 0 -d -1 -p cbr -e 1000 -c 2 -a 0 -i 17 -k AGT
h -t 1.136000000 -s 0 -d -1 -p cbr -e 1000 -c 2 -a 0 -i 17 -k AGT
+ -t 1.136000000 -s 0 -d 1 -p cbr -e 1020 -c 2 -a 0 -i 17 -k RTR 
- -t 1.136000000 -s 0 -d 1 -p cbr -e 1020 -c 2 -a 0 -i 17 -k RTR
h -t 1.136000000 -s 0 -d 1 -p cbr -e 1020 -c 2 -a 0 -i 17 -k RTR
r -t 1.141648903 -s 1 -d 1 -p cbr -e 1020 -c 2 -a 0 -i 6 -k MAC
+ -t 1.141658903 -s 1 -d -1 -p ACK -e 38 -c 2 -a 0 -i 0 -k MAC 
- -t 1.141658903 -s 1 -d -1 -p ACK -e 38 -c 2 -a 0 -i 0 -k MAC
h -t 1.141658903 -s 1 -d -1 -p ACK -e 38 -c 2 -a 0 -i 0 -k MAC
+ -t 1.141673903 -s 1 -d 2 -p cbr -e 1020 -c 2 -a 0 -i 6 -k RTR 
- -t 1.141673903 -s 1 -d 2 -p cbr -e 1020 -c 2 -a 0 -i 6 -k RTR
h -t 1.141673903 -s 1 -d 2 -p cbr -e 1020 -c 2 -a 0 -i 6 -k RTR
r -t 1.141963512 -s 0 -d -1 -p ACK -e 38 -c 2 -a 0 -i 0 -k MAC
+ -t 1.142373512 -s 0 -d -1 -p RTS -e 44 -c 2 -a 0 -i 0 -k MAC 
- -t 1.142373512 -s 0 -d -1 -p RTS -e 44 -c 2 -a 0 -i 0 -k MAC
h -t 1.142373512 -s 0 -d -1 -p RTS -e 44 -c 2 -a 0 -i 0 -k MAC
r -t 1.142726121 -s 1 -d -1 -p RTS -e 44 -c 2 -a 0 -i 0 -k MAC
+ -t 1.142736121 -s 1 -d -1 -p CTS -e 38 -c 2 -a 0 -i 0 -k MAC 
- -t 1.142736121 -s 1 -d -1 -p CTS -e 38 -c 2 -a 0 -i 0 -k MAC
h -t 1.142736121 -s 1 -d -1 -p CTS -e 38 -c 2 -a 0 -i 0 -k MAC
r -t 1.143040730 -s 0 -d -1 -p CTS -e 38 -c 2 -a 0 -i 0 -k MAC
+ -t 1.143050730 -s 0 -d 1 -p cbr -e 1078 -c 2 -a 0 -i 7 -k MAC 
- -t 1.143050730 -s 0 -d 1 -p cbr -e 1078 -c 2 -a 0 -i 7 -k MAC
h -t 1.143050730 -s 0 -d 1 -p cbr -e 1078 -c 2 -a 0 -i 7 -k MAC
+ -t 1.144000000 -s 0 -d -1 -p cbr -e 1000 -c 2 -a 0 -i 18 -k AGT 
- -t 1.144000000 -s 0 -d -1 -p cbr -e 1000 -c 2 -a 0 -i 18 -k AGT
h -t 1.144000000 -s 0 -d -1 -p cbr -e 1000 -c 2 -a 0 -i 18 -k AGT
+ -t 1.144000000 -s 0 -d 1 -p cbr -e 1020 -c 2 -a 0 -i 18 -k RTR 
- -t 1.144000000 -s 0 -d 1 -p cbr -e 1020 -c 2 -a 0 -i 18 -k RTR
h -t 1.144000000 -s 0 -d 1 -p cbr -e 1020 -c 2 -a 0 -i 18 -k RTR
r -t 1.151675339 -s 1 -d 1 -p cbr -e 1020 -c 2 -a 0 -i 7 -k MAC
+ -t 1.151685339 -s 1 -d -1 -p ACK -e 38 -c 2 -a 0 -i 0 -k MAC 
- -t 1.151685339 -s 1 -d -1 -p ACK -e 38 -c 2 -a 0 -i 0 -k MAC
h -t 1.151685339 -s 1 -d -1 -p ACK -e 38 -c 2 -a 0 -i 0 -k MAC
+ -t 1.151700339 -s 1 -d 2 -p cbr -e 1020 -c 2 -a 0 -i 7 -k RTR 